% Model:              inside_out_multifibre_countercurrent_240mins_official_msa.mph
% Version:            COMSOL 6.4.0.378
% Date:               May 18 2026, 18:33
% Table:              Probe Table 10 - 
% Time (min)             Molar concentration, is (mol/m^3), Point: (1.75, 0, 0.5) Molar concentration, is (mol/m^3), Point: (1.75, 0, 5) Molar concentration, is (mol/m^3), Point: (1.75, 0, 10) Molar concentration, is (mol/m^3), Point: (1.75, 0, 15) Molar concentration, is (mol/m^3), Point: (1.75, 0, 19.5)
0                        5.768048042320564E-9                                     5.773167301711657E-9                                   5.784326902376898E-9                                    5.798394447145206E-9                                    5.84875630464071E-9
0.009523035378926766     6.675327620687635E-9                                     8.61064870604533E-9                                    8.71869519594699E-9                                     8.911510720280555E-9                                    8.367699113751673E-9
20                       0.005361052402326007                                     0.0034648354906662436                                  0.001535317170492501                                    2.3682919931940723E-4                                   1.198838742349609E-6
40                       0.005356113249367092                                     0.003463882110867367                                   0.0015332047743992906                                   2.3681798864517927E-4                                   1.198685225588372E-6
60                       0.005359368942414663                                     0.003464673194835388                                   0.001534502956776862                                    2.367901821475596E-4                                    1.2001253576608502E-6
80                       0.005363207103159009                                     0.0034655650675846613                                  0.0015360222761554385                                   2.3680677639062624E-4                                   1.2004813519454906E-6
100                      0.005363886556827333                                     0.0034658970661892094                                  0.0015361492106733187                                   2.368276018742308E-4                                    1.1995096523756214E-6
120                      0.005362877633418921                                     0.0034659584258161366                                  0.0015353359088092432                                   2.368173136722869E-4                                    1.1980740987114034E-6
140                      0.005363766271489073                                     0.003465643559092158                                   0.0015352861049993615                                   2.368023317439903E-4                                    1.199775809113218E-6
160                      0.005365165770566786                                     0.003465593269676171                                   0.0015360420941987942                                   2.3681930409937888E-4                                   1.2002264345416305E-6
180                      0.00536467248893634                                      0.003466395940723395                                   0.0015362212199921703                                   2.3682263440965944E-4                                   1.1991977341748913E-6
200                      0.005364370484178667                                     0.0034669236824272673                                  0.0015359240062225081                                   2.3681557847866262E-4                                   1.1991613603618223E-6
220                      0.005364975729783209                                     0.0034666919030086236                                  0.0015356446427482                                      2.3681115342678012E-4                                   1.2000256649097797E-6
240                      0.005365867650248141                                     0.0034659763029464253                                  0.0015357865573556867                                   2.3681834314407646E-4                                   1.2012814711775663E-6
