% Model:              inside_out_multifibre_countercurrent_240mins_official_msa.mph
% Version:            COMSOL 6.4.0.378
% Date:               May 18 2026, 18:36
% Table:              Probe Table 10 - 
% Time (min)             Molar concentration, is (mol/m^3), Point: (1.75, 0, 0.5) Molar concentration, is (mol/m^3), Point: (1.75, 0, 5) Molar concentration, is (mol/m^3), Point: (1.75, 0, 10) Molar concentration, is (mol/m^3), Point: (1.75, 0, 15) Molar concentration, is (mol/m^3), Point: (1.75, 0, 19.5)
0                        5.7161851283386535E-9                                    5.773167301711674E-9                                   5.784326902376865E-9                                    5.798394447145135E-9                                    5.805718409615749E-9
0.009523035378926766     6.626972894397913E-9                                     8.610648706045311E-9                                   8.718695195947054E-9                                    8.911510720280482E-9                                    8.317924661817341E-9
20                       0.005361080390933324                                     0.003464835490666254                                   0.0015353171704925147                                   2.3682919931941647E-4                                   1.209125933070406E-6
40                       0.0053561429256962475                                    0.0034638821108673775                                  0.0015332047743993043                                   2.3681798864518848E-4                                   1.2089718996447966E-6
60                       0.00535939744628017                                      0.0034646731948353984                                  0.0015345029567768757                                   2.3679018214756883E-4                                   1.2104274650262774E-6
80                       0.005363234671043988                                     0.0034655650675846712                                  0.001536022276155452                                    2.3680677639063548E-4                                   1.2107886712159625E-6
100                      0.005363914543308378                                     0.0034658970661892194                                  0.0015361492106733324                                   2.3682760187423996E-4                                   1.2098076426033018E-6
120                      0.005362906446342809                                     0.003465958425816147                                   0.0015353359088092569                                   2.368173136722961E-4                                    1.2083562623394896E-6
140                      0.005363794760581041                                     0.0034656435590921684                                  0.001535286104999375                                    2.3680233174399953E-4                                   1.2100703287112512E-6
160                      0.005365193288328376                                     0.003465593269676181                                   0.0015360420941988077                                   2.3681930409938807E-4                                   1.2105265312334477E-6
180                      0.0053647003724237715                                    0.003466395940723405                                   0.0015362212199921841                                   2.3682263440966863E-4                                   1.2094951629912226E-6
200                      0.0053643989665283056                                    0.0034669236824272772                                  0.0015359240062225218                                   2.3681557847867179E-4                                   1.2094566169616481E-6
220                      0.005365004197658768                                     0.0034666919030086336                                  0.0015356446427482137                                   2.368111534267893E-4                                    1.2103221697909214E-6
240                      0.005365895511064428                                     0.0034659763029464353                                  0.0015357865573557004                                   2.3681834314408568E-4                                   1.2115842539505816E-6
