% Model:              inside_out_multifibre_countercurrent_240mins_official_msa.mph
% Version:            COMSOL 6.4.0.378
% Date:               May 18 2026, 16:59
% Table:              Probe Table 10 - 
% Time (min)             Molar concentration, is (mol/m^3), Point: (1.75, 0, 0.5) Molar concentration, is (mol/m^3), Point: (1.75, 0, 5) Molar concentration, is (mol/m^3), Point: (1.75, 0, 10) Molar concentration, is (mol/m^3), Point: (1.75, 0, 15) Molar concentration, is (mol/m^3), Point: (1.75, 0, 19.5)
0                        6.208977200413105E-9                                     5.764010397618157E-9                                   5.774078260458697E-9                                    5.7959687497240776E-9                                   6.221921989714098E-9
0.009523035378926766     7.004497497634428E-9                                     8.576506927550775E-9                                   8.861269658653257E-9                                    8.819164919793223E-9                                    8.785874264502237E-9
20                       0.005360531935228502                                     0.0034645267801560625                                  0.0015342996423357929                                   2.364839540403722E-4                                    1.12701609431887E-6
40                       0.005355579683190722                                     0.0034635679079028973                                  0.0015320882851469133                                   2.3647214077391373E-4                                   1.126866458548526E-6
60                       0.005358844624963158                                     0.003464357189612961                                   0.0015334776229132033                                   2.3644397994209535E-4                                   1.1281690067328202E-6
80                       0.005362690252524335                                     0.0034652532511663284                                  0.001535059422216106                                    2.3646084871339407E-4                                   1.1284817457961104E-6
100                      0.0053633665655137015                                    0.003465589009214423                                   0.0015351569737095628                                   2.3648204213695817E-4                                   1.1275931985352572E-6
120                      0.005362351110668474                                     0.003465649914947546                                   0.0015342969762418908                                   2.364718218402545E-4                                    1.1262944328685955E-6
140                      0.005363242089532979                                     0.003465329163162777                                   0.0015342736966480037                                   2.3645643452245544E-4                                   1.1278845639184237E-6
160                      0.005364649225590769                                     0.003465276104631227                                   0.0015350681240225326                                   2.3647330805188967E-4                                   1.1282904743036092E-6
180                      0.005364153292892849                                     0.003466082060660883                                   0.0015352196138811128                                   2.3647679793293148E-4                                   1.1272850131608282E-6
200                      0.005363846579720102                                     0.0034666116860190685                                  0.0015348995699021365                                   2.3646988376643585E-4                                   1.1272655805031944E-6
220                      0.005364451763028472                                     0.0034663791475554938                                  0.001534627435441679                                    2.3646544173560954E-4                                   1.1281179631672995E-6
240                      0.005365348366087424                                     0.003465662015502041                                   0.001534795496725784                                    2.3647248895047873E-4                                   1.1293195929087353E-6
