% Model:              outside_in_multifibre_countercurrent_240mins_official_msa.mph
% Version:            COMSOL 6.4.0.378
% Date:               May 18 2026, 18:06
% Table:              Probe Table 8 - 
% Time (min)             Molar concentration, is (mol/m^3), Point: (0.145, 0, 0.5) Molar concentration, is (mol/m^3), Point: (0.145, 0, 5) Molar concentration, is (mol/m^3), Point: (0.145, 0, 10) Molar concentration, is (mol/m^3), Point: (0.145, 0, 15) Molar concentration, is (mol/m^3), Point: (0.145, 0, 20)
0                        6.982447031750624E-4                                      7.196132825085369E-4                                    7.196135638487314E-4                                     7.196137287305406E-4                                     7.009777312649957E-4
20                       0.02528962184023393                                       0.06209073517119285                                     0.08041108803808589                                      0.0899570662758187                                       0.09488314510613712
40                       0.025309854088008368                                      0.06211057324030098                                     0.0804162184022043                                       0.08996135963052738                                      0.09488588126536052
60                       0.02530508944771677                                       0.06210043976457869                                     0.08041190095437531                                      0.08995761305418135                                      0.09488396467896922
80                       0.025289830267626004                                      0.06208161845931701                                     0.08040567775071301                                      0.08995302580173906                                      0.09488144213155954
100                      0.025282572126381693                                      0.06207459349502904                                     0.08040019461416757                                      0.08995078431580678                                      0.09487945758989277
120                      0.02528292677771821                                       0.0620773973737916                                      0.08039673947271342                                      0.08995027178238663                                      0.09487858212087638
140                      0.025283372602156812                                      0.06207997928730479                                     0.0803960696209408                                       0.08994971291265723                                      0.09487864337897892
160                      0.0252776649762246                                        0.06207451902006328                                     0.08039873410903575                                      0.08994813945446574                                      0.09487861976689048
180                      0.025275677568758065                                      0.062068867868866104                                    0.08039882767725809                                      0.08994966453469799                                      0.09487878832332772
200                      0.02528157909266732                                       0.0620733604741419                                      0.08039647588880268                                      0.08995057189319873                                      0.09487894408321318
220                      0.025285193044981488                                      0.06207771336092162                                     0.08039574519814369                                      0.08994978457442598                                      0.09487896906809921
240                      0.025283656207162372                                      0.06207753959662723                                     0.08039681821292868                                      0.08994900617489983                                      0.09487892352599492
