% Model:              outside_in_multifibre_countercurrent_240mins_official_msa.mph
% Version:            COMSOL 6.4.0.378
% Date:               May 18 2026, 18:02
% Table:              Probe Table 8 - 
% Time (min)             Molar concentration, is (mol/m^3), Point: (0.145, 0, 0.5) Molar concentration, is (mol/m^3), Point: (0.145, 0, 5) Molar concentration, is (mol/m^3), Point: (0.145, 0, 10) Molar concentration, is (mol/m^3), Point: (0.145, 0, 15) Molar concentration, is (mol/m^3), Point: (0.145, 0, 20)
0                        6.982447031750625E-4                                      7.196132825085358E-4                                    7.196135638487292E-4                                     7.196137287305457E-4                                     7.00977731264995E-4
20                       0.025289621840233926                                      0.06209073517119281                                     0.0804110880380859                                       0.08995706627581877                                      0.09488314510613713
40                       0.025309854088008378                                      0.062110573240300955                                    0.08041621840220432                                      0.08996135963052747                                      0.09488588126536056
60                       0.02530508944771677                                       0.06210043976457867                                     0.08041190095437534                                      0.08995761305418143                                      0.09488396467896926
80                       0.025289830267626                                         0.062081618459316985                                    0.08040567775071303                                      0.08995302580173914                                      0.09488144213155958
100                      0.025282572126381696                                      0.06207459349502901                                     0.08040019461416759                                      0.08995078431580684                                      0.09487945758989282
120                      0.02528292677771821                                       0.06207739737379157                                     0.08039673947271343                                      0.08995027178238671                                      0.09487858212087641
140                      0.02528337260215682                                       0.06207997928730477                                     0.08039606962094081                                      0.08994971291265733                                      0.09487864337897894
160                      0.0252776649762246                                        0.06207451902006325                                     0.08039873410903578                                      0.08994813945446582                                      0.09487861976689053
180                      0.025275677568758065                                      0.062068867868866076                                    0.0803988276772581                                       0.08994966453469806                                      0.09487878832332776
200                      0.025281579092667327                                      0.062073360474141866                                    0.08039647588880271                                      0.08995057189319881                                      0.09487894408321323
220                      0.02528519304498149                                       0.0620777133609216                                      0.0803957451981437                                       0.08994978457442607                                      0.09487896906809924
240                      0.025283656207162372                                      0.0620775395966272                                      0.08039681821292871                                      0.0899490061748999                                       0.09487892352599496
