% Model:              outside_in_multifibre_countercurrent_240mins_official_msa.mph
% Version:            COMSOL 6.4.0.378
% Date:               May 18 2026, 18:11
% Table:              Probe Table 8 - 
% Time (min)             Molar concentration, is (mol/m^3), Point: (0.145, 0, 0.5) Molar concentration, is (mol/m^3), Point: (0.145, 0, 5) Molar concentration, is (mol/m^3), Point: (0.145, 0, 10) Molar concentration, is (mol/m^3), Point: (0.145, 0, 15) Molar concentration, is (mol/m^3), Point: (0.145, 0, 20)
0                        6.982447031750623E-4                                      7.196132825085347E-4                                    7.196135638487316E-4                                     7.196137287305428E-4                                     7.009777312649954E-4
20                       0.02528962184023392                                       0.06209073517119289                                     0.080411088038086                                        0.08995706627581866                                      0.09488314510613732
40                       0.025309854088008368                                      0.06211057324030103                                     0.0804162184022044                                       0.08996135963052736                                      0.09488588126536072
60                       0.025305089447716762                                      0.06210043976457873                                     0.08041190095437543                                      0.08995761305418133                                      0.09488396467896942
80                       0.025289830267625997                                      0.062081618459317055                                    0.08040567775071313                                      0.08995302580173903                                      0.09488144213155976
100                      0.02528257212638169                                       0.062074593495029085                                    0.08040019461416767                                      0.08995078431580672                                      0.094879457589893
120                      0.0252829267777182                                        0.062077397373791636                                    0.08039673947271353                                      0.0899502717823866                                       0.09487858212087658
140                      0.025283372602156816                                      0.06207997928730484                                     0.08039606962094091                                      0.0899497129126572                                       0.09487864337897912
160                      0.025277664976224593                                      0.06207451902006332                                     0.08039873410903588                                      0.08994813945446571                                      0.09487861976689069
180                      0.025275677568758058                                      0.062068867868866145                                    0.08039882767725819                                      0.08994966453469795                                      0.09487878832332793
200                      0.02528157909266732                                       0.06207336047414194                                     0.0803964758888028                                       0.0899505718931987                                       0.09487894408321339
220                      0.02528519304498148                                       0.06207771336092167                                     0.08039574519814381                                      0.08994978457442596                                      0.09487896906809944
240                      0.025283656207162365                                      0.062077539596627276                                    0.08039681821292881                                      0.08994900617489979                                      0.09487892352599515
