% Model:              inside_out_multifibre_countercurrent_240mins_official_msa.mph
% Version:            COMSOL 6.4.0.378
% Date:               May 18 2026, 18:08
% Table:              Probe Table 10 - 
% Time (min)             Molar concentration, is (mol/m^3), Point: (1.75, 0, 0.5) Molar concentration, is (mol/m^3), Point: (1.75, 0, 5) Molar concentration, is (mol/m^3), Point: (1.75, 0, 10) Molar concentration, is (mol/m^3), Point: (1.75, 0, 15) Molar concentration, is (mol/m^3), Point: (1.75, 0, 19.5)
0                        5.864377346331187E-9                                     5.767901184846202E-9                                   5.783192879018703E-9                                    5.799870411381931E-9                                    5.930492730587733E-9
0.009523035378926766     6.75529830026119E-9                                      8.613959493606379E-9                                   8.750925979280343E-9                                    8.857091178344005E-9                                    8.466964203658232E-9
20                       0.005361003964359576                                     0.003464809180937804                                   0.0015351791719177303                                   2.3659711052525975E-4                                   1.1834926988135584E-6
40                       0.00535606194260361                                      0.003463849877677923                                   0.0015330488018476152                                   2.3658528190585525E-4                                   1.183340024608074E-6
60                       0.005359319381731235                                     0.003464641471896339                                   0.0015343632569279654                                   2.3655710142036167E-4                                   1.1847502697000026E-6
80                       0.0053631591519907795                                    0.003465538095194766                                   0.0015358939235501682                                   2.365739797056779E-4                                    1.1850968889756712E-6
100                      0.005363838127565302                                     0.0034658727449028673                                  0.0015360157201759097                                   2.365951892713246E-4                                    1.1841432553113012E-6
120                      0.005362827953447733                                     0.003465932668534233                                   0.0015351940214615235                                   2.3658496860439585E-4                                   1.1827373708164275E-6
140                      0.00536371696042326                                      0.0034656126077396614                                  0.0015351488628053888                                   2.365695684584536E-4                                    1.1844148761839855E-6
160                      0.005365118002834624                                     0.0034655602909806752                                  0.0015359117506263452                                   2.3658644524648188E-4                                   1.1848557850874427E-6
180                      0.005364624217647701                                     0.0034663658928651385                                  0.0015360859924940821                                   2.3658993971871348E-4                                   1.1838321383811349E-6
200                      0.005364321243923879                                     0.0034668951365854697                                  0.0015357847071644395                                   2.365830249890988E-4                                    1.183799449368213E-6
220                      0.005364926448206768                                     0.003466662727266252                                   0.0015355066049543727                                   2.365785798032373E-4                                    1.1846611643061766E-6
240                      0.005365819326305292                                     0.003465946092721633                                   0.0015356531671673105                                   2.3658562606133183E-4                                   1.185905214293281E-6
