% Model:              inside_out_multifibre_countercurrent_240mins_official_msa.mph
% Version:            COMSOL 6.4.0.378
% Date:               May 18 2026, 18:29
% Table:              Probe Table 10 - 
% Time (min)             Molar concentration, is (mol/m^3), Point: (1.75, 0, 0.5) Molar concentration, is (mol/m^3), Point: (1.75, 0, 5) Molar concentration, is (mol/m^3), Point: (1.75, 0, 10) Molar concentration, is (mol/m^3), Point: (1.75, 0, 15) Molar concentration, is (mol/m^3), Point: (1.75, 0, 19.5)
0                        5.768048042320515E-9                                     5.773167301711623E-9                                   5.784326902376847E-9                                    5.7983944471452666E-9                                   5.848756304640697E-9
0.009523035378926766     6.675327620687725E-9                                     8.610648706045384E-9                                   8.718695195947019E-9                                    8.911510720280578E-9                                    8.367699113751037E-9
20                       0.005361052402326011                                     0.0034648354906662293                                  0.0015353171704924834                                   2.3682919931939872E-4                                   1.1988387423495667E-6
40                       0.005356113249367096                                     0.003463882110867353                                   0.0015332047743992733                                   2.3681798864517075E-4                                   1.19868522558833E-6
60                       0.005359368942414666                                     0.0034646731948353732                                  0.001534502956776845                                    2.3679018214755107E-4                                   1.2001253576608078E-6
80                       0.005363207103159013                                     0.003465565067584647                                   0.0015360222761554212                                   2.3680677639061775E-4                                   1.200481351945448E-6
100                      0.005363886556827336                                     0.0034658970661891947                                  0.0015361492106733014                                   2.3682760187422223E-4                                   1.1995096523755793E-6
120                      0.0053628776334189235                                    0.0034659584258161227                                  0.0015353359088092259                                   2.3681731367227842E-4                                   1.198074098711361E-6
140                      0.005363766271489076                                     0.0034656435590921437                                  0.001535286104999344                                    2.3680233174398177E-4                                   1.1997758091131758E-6
160                      0.005365165770566789                                     0.003465593269676156                                   0.0015360420941987769                                   2.3681930409937034E-4                                   1.2002264345415886E-6
180                      0.005364672488936344                                     0.003466395940723381                                   0.001536221219992153                                    2.368226344096509E-4                                    1.1991977341748491E-6
200                      0.0053643704841786705                                    0.003466923682427253                                   0.0015359240062224905                                   2.3681557847865409E-4                                   1.19916136036178E-6
220                      0.005364975729783211                                     0.003466691903008609                                   0.0015356446427481824                                   2.3681115342677158E-4                                   1.2000256649097374E-6
240                      0.005365867650248144                                     0.003465976302946411                                   0.0015357865573556694                                   2.3681834314406798E-4                                   1.201281471177524E-6
