% Model:              outside_in_multifibre_countercurrent_240mins_official_msa.mph
% Version:            COMSOL 6.4.0.378
% Date:               May 18 2026, 18:35
% Table:              Probe Table 8 - 
% Time (min)             Molar concentration, is (mol/m^3), Point: (0.145, 0, 0.5) Molar concentration, is (mol/m^3), Point: (0.145, 0, 5) Molar concentration, is (mol/m^3), Point: (0.145, 0, 10) Molar concentration, is (mol/m^3), Point: (0.145, 0, 15) Molar concentration, is (mol/m^3), Point: (0.145, 0, 20)
0                        7.01152434928558E-4                                       7.196133920693773E-4                                    7.196135638487299E-4                                     7.196136301899077E-4                                     7.009777312650037E-4
20                       0.025270551606801694                                      0.062089942451898236                                    0.08041108803808598                                      0.08995683600900772                                      0.09488314510613874
40                       0.025290908869323385                                      0.062109779087372696                                    0.08041621840220438                                      0.08996113687828815                                      0.09488588126536215
60                       0.02528625425462486                                       0.06209963985387949                                     0.0804119009543754                                       0.08995738603316422                                      0.09488396467897085
80                       0.025270982322657447                                      0.06208084747165344                                     0.08040567775071308                                      0.08995280267041769                                      0.09488144213156119
100                      0.025263636088413872                                      0.062073828430167                                       0.08040019461416766                                      0.08995056024174376                                      0.09487945758989438
120                      0.025263930024364757                                      0.062076606907411826                                    0.0803967394727135                                       0.08995004312002904                                      0.094878582120878
140                      0.025264408218419764                                      0.062079161738711995                                    0.08039606962094088                                      0.08994948322854529                                      0.09487864337898055
160                      0.025258782911076413                                      0.06207373005189299                                     0.08039873410903586                                      0.0899479192058972                                       0.09487861976689213
180                      0.025256765923100433                                      0.06206811592276749                                     0.08039882767725817                                      0.08994944114696922                                      0.09487878832332937
200                      0.025262570882103163                                      0.06207258843347442                                     0.08039647588880276                                      0.08995034193262838                                      0.09487894408321482
220                      0.02526615278626198                                       0.062076908474241854                                    0.08039574519814378                                      0.08994955717906818                                      0.09487896906810085
240                      0.025264645568944574                                      0.06207672542860866                                     0.08039681821292878                                      0.08994878336796715                                      0.09487892352599656
