% Model:              inside_out_multifibre_countercurrent_240mins_official_msa.mph
% Version:            COMSOL 6.4.0.378
% Date:               May 18 2026, 18:14
% Table:              Probe Table 10 - 
% Time (min)             Molar concentration, is (mol/m^3), Point: (1.75, 0, 0.5) Molar concentration, is (mol/m^3), Point: (1.75, 0, 5) Molar concentration, is (mol/m^3), Point: (1.75, 0, 10) Molar concentration, is (mol/m^3), Point: (1.75, 0, 15) Molar concentration, is (mol/m^3), Point: (1.75, 0, 19.5)
0                        5.8416479599915905E-9                                    5.773167301711554E-9                                   5.7843269023768595E-9                                   5.798394447145117E-9                                    5.911206607611459E-9
0.009523035378926766     6.736428814069693E-9                                     8.610648706045505E-9                                   8.718695195946983E-9                                    8.911510720280846E-9                                    8.443542103792252E-9
20                       0.005361015393542667                                     0.003464835490666232                                   0.0015353171704924826                                   2.3682919931939986E-4                                   1.1871136753782195E-6
40                       0.005356074048693871                                     0.0034638821108673554                                  0.001533204774399272                                    2.368179886451719E-4                                    1.1869608023674451E-6
60                       0.005359331075825078                                     0.003464673194835376                                   0.0015345029567768436                                   2.367901821475522E-4                                    1.1883780994435484E-6
80                       0.005363170466311374                                     0.003465565067584649                                   0.0015360222761554199                                   2.3680677639061886E-4                                   1.1887269307999856E-6
100                      0.005363849554694547                                     0.0034658970661891973                                  0.0015361492106733                                      2.368276018742234E-4                                    1.1877690343938684E-6
120                      0.005362839675688126                                     0.0034659584258161244                                  0.0015353359088092248                                   2.3681731367227954E-4                                   1.1863561493084755E-6
140                      0.005363728595618565                                     0.0034656435590921463                                  0.0015352861049993428                                   2.3680233174398297E-4                                   1.1880393659762513E-6
160                      0.005365129273872551                                     0.0034655932696761585                                  0.0015360420941987753                                   2.3681930409937148E-4                                   1.1884825675429002E-6
180                      0.005364635607502324                                     0.0034663959407233835                                  0.0015362212199921516                                   2.3682263440965204E-4                                   1.1874577283998612E-6
200                      0.005364332862410965                                     0.0034669236824272556                                  0.0015359240062224892                                   2.3681557847865522E-4                                   1.1874241699397136E-6
220                      0.005364938076443906                                     0.0034666919030086115                                  0.0015356446427481814                                   2.3681115342677274E-4                                   1.1882864959092487E-6
240                      0.0053658307285839426                                    0.003465976302946413                                   0.001535786557355668                                    2.368183431440691E-4                                    1.189533319850222E-6
