% Model:              inside_out_multifibre_countercurrent_240mins_official_msa.mph
% Version:            COMSOL 6.4.0.378
% Date:               May 18 2026, 18:03
% Table:              Probe Table 10 - 
% Time (min)             Molar concentration, is (mol/m^3), Point: (1.75, 0, 0.5) Molar concentration, is (mol/m^3), Point: (1.75, 0, 5) Molar concentration, is (mol/m^3), Point: (1.75, 0, 10) Molar concentration, is (mol/m^3), Point: (1.75, 0, 15) Molar concentration, is (mol/m^3), Point: (1.75, 0, 19.5)
0                        6.038635974934778E-9                                     5.76790118484608E-9                                    5.7831928790186836E-9                                   5.7998704113819216E-9                                   6.078353006738989E-9
0.009523035378926766     6.89996436106257E-9                                      8.613959493606584E-9                                   8.750925979280378E-9                                    8.857091178344015E-9                                    8.646533635961295E-9
20                       0.00536091634062254                                      0.0034648091809378074                                  0.0015351791719177303                                   2.3659711052525926E-4                                   1.1557318784843214E-6
40                       0.005355969129244947                                     0.0034638498776779266                                  0.0015330488018476152                                   2.3658528190585477E-4                                   1.1555807284527255E-6
60                       0.005359229727011767                                     0.0034646414718963424                                  0.001534363256927965                                    2.3655710142036118E-4                                   1.15693690833265E-6
80                       0.005363072408866222                                     0.003465538095194769                                   0.0015358939235501682                                   2.3657397970567738E-4                                   1.157266568322426E-6
100                      0.005363750519574432                                     0.0034658727449028703                                  0.0015360157201759095                                   2.3659518927132407E-4                                   1.1563456156781153E-6
120                      0.005362738082938048                                     0.0034659326685342363                                  0.0015351940214615235                                   2.3658496860439534E-4                                   1.1549934023772244E-6
140                      0.0053636277572592555                                    0.003465612607739665                                   0.0015351488628053888                                   2.365695684584531E-4                                    1.156627121109779E-6
160                      0.005365031591543853                                     0.0034655602909806783                                  0.0015359117506263452                                   2.3658644524648137E-4                                   1.1570504529287663E-6
180                      0.005364536895428919                                     0.003466365892865142                                   0.001536085992494082                                    2.36589939718713E-4                                     1.156035948237396E-6
200                      0.005364232168856221                                     0.003466895136585473                                   0.001535784707164439                                    2.3658302498909828E-4                                   1.1560099249865378E-6
220                      0.005364837298388705                                     0.0034666627272662547                                  0.0015355066049543725                                   2.365785798032368E-4                                    1.1568669553491196E-6
240                      0.0053657319088356355                                    0.003465946092721636                                   0.00153565316716731                                     2.3658562606133137E-4                                   1.1580897383565628E-6
