% Model:              outside_in_multifibre_countercurrent_240mins_official_msa.mph
% Version:            COMSOL 6.4.0.378
% Date:               May 18 2026, 17:59
% Table:              Probe Table 8 - 
% Time (min)             Molar concentration, is (mol/m^3), Point: (0.145, 0, 0.5) Molar concentration, is (mol/m^3), Point: (0.145, 0, 5) Molar concentration, is (mol/m^3), Point: (0.145, 0, 10) Molar concentration, is (mol/m^3), Point: (0.145, 0, 15) Molar concentration, is (mol/m^3), Point: (0.145, 0, 20)
0                        7.00560401194512E-4                                       7.19613282508534E-4                                     7.196135638487288E-4                                     7.196137287305435E-4                                     7.009777312649933E-4
20                       0.025322863672819797                                      0.06209073517119279                                     0.08041108803808607                                      0.08995706627581873                                      0.09488314510613677
40                       0.025343079656493395                                      0.062110573240300934                                    0.08041621840220448                                      0.0899613596305274                                       0.09488588126536016
60                       0.025338264423777984                                      0.06210043976457865                                     0.0804119009543755                                       0.08995761305418139                                      0.09488396467896887
80                       0.025322989153124125                                      0.062081618459316965                                    0.08040567775071318                                      0.08995302580173908                                      0.09488144213155919
100                      0.025315767950230342                                      0.062074593495028994                                    0.08040019461416774                                      0.0899507843158068                                       0.09487945758989243
120                      0.0253161577747529                                        0.062077397373791546                                    0.08039673947271359                                      0.08995027178238667                                      0.09487858212087602
140                      0.025316591895642376                                      0.06207997928730474                                     0.08039606962094098                                      0.08994971291265727                                      0.09487864337897856
160                      0.025310850831419048                                      0.062074519020063224                                    0.08039873410903593                                      0.08994813945446578                                      0.09487861976689012
180                      0.025308876786145854                                      0.062068867868866055                                    0.08039882767725826                                      0.089949664534698                                        0.09487878832332736
200                      0.0253148260289724                                        0.06207336047414185                                     0.08039647588880285                                      0.08995057189319877                                      0.09487894408321285
220                      0.02531845370601378                                       0.062077713360921584                                    0.08039574519814385                                      0.089949784574426                                        0.09487896906809887
240                      0.025316885103791903                                      0.06207753959662718                                     0.08039681821292886                                      0.08994900617489984                                      0.09487892352599457
