% Model:              inside_out_multifibre_countercurrent_240mins_official_msa.mph
% Version:            COMSOL 6.4.0.378
% Date:               May 18 2026, 17:56
% Table:              Probe Table 10 - 
% Time (min)             Molar concentration, is (mol/m^3), Point: (1.75, 0, 0.5) Molar concentration, is (mol/m^3), Point: (1.75, 0, 5) Molar concentration, is (mol/m^3), Point: (1.75, 0, 10) Molar concentration, is (mol/m^3), Point: (1.75, 0, 15) Molar concentration, is (mol/m^3), Point: (1.75, 0, 19.5)
0                        6.212894603538317E-9                                     5.7679011848460726E-9                                  5.7779763715712115E-9                                   5.799870411381885E-9                                    6.226213282890258E-9
0.009523035378926766     7.0446304218640686E-9                                    8.613959493606586E-9                                   8.899187582613823E-9                                    8.857091178344058E-9                                    8.82610306826422E-9
20                       0.005360828716885504                                     0.003464809180937804                                   0.0015345443784738717                                   2.3659711052525972E-4                                   1.1279710581550819E-6
40                       0.005355876315886282                                     0.003463849877677923                                   0.001532331328109995                                    2.3658528190585525E-4                                   1.1278214322973747E-6
60                       0.0053591400722923                                       0.0034646414718963385                                  0.0015337206376231252                                   2.3655710142036167E-4                                   1.1291235469652948E-6
80                       0.005362985665741664                                     0.003465538095194766                                   0.0015353035015660118                                   2.3657397970567787E-4                                   1.129436247669178E-6
100                      0.00536366291158356                                      0.003465872744902867                                   0.001535401663887915                                    2.3659518927132459E-4                                   1.1285479760449275E-6
120                      0.0053626482124283625                                    0.003465932668534233                                   0.0015345413396620987                                   2.3658496860439582E-4                                   1.1272494339380192E-6
140                      0.00536353855409525                                      0.0034656126077396614                                  0.0015345175487132025                                   2.365695684584536E-4                                    1.1288393660355698E-6
160                      0.005364945180253083                                     0.0034655602909806752                                  0.0015353121701931665                                   2.3658644524648188E-4                                   1.1292451207700871E-6
180                      0.005364449573210137                                     0.003466365892865138                                   0.0015354639460029625                                   2.365899397187135E-4                                    1.1282397580936548E-6
200                      0.005364143093788564                                     0.0034668951365854697                                  0.0015351439314974097                                   2.365830249890988E-4                                    1.1282204006048602E-6
220                      0.005364748148570641                                     0.0034666627272662513                                  0.0015348716311028533                                   2.365785798032373E-4                                    1.1290727463920604E-6
240                      0.005365644491365978                                     0.003465946092721632                                   0.001535039572300866                                    2.3658562606133186E-4                                   1.1302742624198425E-6
