% Model:              outside_in_multifibre_countercurrent_240mins_official_msa.mph
% Version:            COMSOL 6.4.0.378
% Date:               May 18 2026, 17:54
% Table:              Probe Table 8 - 
% Time (min)             Molar concentration, is (mol/m^3), Point: (0.145, 0, 0.5) Molar concentration, is (mol/m^3), Point: (0.145, 0, 5) Molar concentration, is (mol/m^3), Point: (0.145, 0, 10) Molar concentration, is (mol/m^3), Point: (0.145, 0, 15) Molar concentration, is (mol/m^3), Point: (0.145, 0, 20)
0                        7.005604011945125E-4                                      7.196126799239055E-4                                    7.196135638487272E-4                                     7.196142707040477E-4                                     7.00977731264991E-4
20                       0.025322863672819787                                      0.06209509512731536                                     0.08041108803808608                                      0.0899583327432801                                       0.09488314510613657
40                       0.02534307965649338                                       0.06211494108140869                                     0.08041621840220448                                      0.08996258476784426                                      0.09488588126535998
60                       0.02533826442377797                                       0.062104839273426485                                    0.0804119009543755                                       0.08995886166977675                                      0.09488396467896867
80                       0.025322989153124115                                      0.06208585889146878                                     0.08040567775071318                                      0.08995425302400778                                      0.09488144213155902
100                      0.025315767950230335                                      0.062078801351772496                                    0.08040019461416775                                      0.08995201672315434                                      0.09487945758989223
120                      0.02531615777475289                                       0.062081744938882556                                    0.08039673947271359                                      0.08995152942535453                                      0.09487858212087584
140                      0.025316591895642362                                      0.062084475804567406                                    0.08039606962094098                                      0.08995097617527413                                      0.09487864337897839
160                      0.025310850831419027                                      0.062078858345002035                                    0.08039873410903593                                      0.08994935082159383                                      0.09487861976688995
180                      0.02530887678614584                                       0.06207300357241069                                     0.08039882767725828                                      0.0899508931672073                                       0.09487878832332718
200                      0.025314826028972382                                      0.06207760669781523                                     0.08039647588880286                                      0.08995183667633676                                      0.09487894408321267
220                      0.02531845370601377                                       0.06208214023766257                                     0.08039574519814387                                      0.089951035248895                                        0.09487896906809869
240                      0.025316885103791893                                      0.06208201752073156                                     0.08039681821292888                                      0.08995023161303053                                      0.09487892352599439
