% Model:              outside_in_multifibre_countercurrent_240mins_official_msa.mph
% Version:            COMSOL 6.4.0.378
% Date:               May 18 2026, 16:54
% Table:              Probe Table 8 - 
% Time (min)             Molar concentration, is (mol/m^3), Point: (0.145, 0, 0.5) Molar concentration, is (mol/m^3), Point: (0.145, 0, 5) Molar concentration, is (mol/m^3), Point: (0.145, 0, 10) Molar concentration, is (mol/m^3), Point: (0.145, 0, 15) Molar concentration, is (mol/m^3), Point: (0.145, 0, 20)
0                        8.446622834733976E-4                                      7.120947501837698E-4                                    7.120941122435654E-4                                     7.120938117744055E-4                                     7.031824676202595E-4
20                       0.025204721226898465                                      0.061646473131352214                                    0.08012720824734351                                      0.08978389910175152                                      0.0948071113655008
40                       0.025199618779031985                                      0.061637698983943716                                    0.0801283000802336                                       0.08978531393636502                                      0.09480916590709956
60                       0.02518514477646601                                       0.061632539564983324                                    0.08012120478929434                                      0.0897835060265624                                       0.09480792652655211
80                       0.02517668631174775                                       0.061629918024030346                                    0.08011439294335246                                      0.08977942533926594                                      0.09480491294236351
100                      0.025182617826567034                                      0.06162470717891392                                     0.08011341230298101                                      0.0897770159269512                                       0.09480357729246545
120                      0.025184645587060437                                      0.061616035301376396                                    0.0801113085941236                                       0.08977618606064745                                      0.09480329616329759
140                      0.02518310835892824                                       0.06161465477957656                                     0.08010899315136596                                      0.0897764944675137                                       0.09480332760785198
160                      0.025180084698227925                                      0.061620274083240376                                    0.0801088073309075                                       0.08977669924199005                                      0.09480336519311397
180                      0.025177796096667558                                      0.0616240170350595                                      0.08011166543537762                                      0.08977591092171208                                      0.09480342972865338
200                      0.025177971353393874                                      0.061615681123582025                                    0.08011166950457396                                      0.08977608693275649                                      0.09480350525020942
220                      0.02518040656151902                                       0.06161283210508209                                     0.08010691032679008                                      0.08977693039606988                                      0.09480345294256023
240                      0.02517957650263351                                       0.06161870818013501                                     0.08010817096418603                                      0.08977612033753435                                      0.0948034696076654
