% Model:              outside_in_multifibre_countercurrent_240mins_official_msa.mph
% Version:            COMSOL 6.4.0.378
% Date:               May 18 2026, 18:27
% Table:              Probe Table 8 - 
% Time (min)             Molar concentration, is (mol/m^3), Point: (0.145, 0, 0.5) Molar concentration, is (mol/m^3), Point: (0.145, 0, 5) Molar concentration, is (mol/m^3), Point: (0.145, 0, 10) Molar concentration, is (mol/m^3), Point: (0.145, 0, 15) Molar concentration, is (mol/m^3), Point: (0.145, 0, 20)
0                        6.982447031750618E-4                                      7.196132825085356E-4                                    7.1961356384873E-4                                       7.196137287305427E-4                                     7.009777312650005E-4
20                       0.025289621840233922                                      0.062090735171192686                                    0.08041108803808572                                      0.08995706627581887                                      0.09488314510613793
40                       0.025309854088008368                                      0.06211057324030084                                     0.08041621840220411                                      0.08996135963052758                                      0.09488588126536134
60                       0.025305089447716762                                      0.06210043976457854                                     0.08041190095437516                                      0.08995761305418155                                      0.09488396467897006
80                       0.025289830267625994                                      0.06208161845931686                                     0.08040567775071282                                      0.08995302580173926                                      0.09488144213156038
100                      0.025282572126381686                                      0.06207459349502888                                     0.08040019461416739                                      0.08995078431580697                                      0.09487945758989362
120                      0.0252829267777182                                        0.06207739737379145                                     0.08039673947271322                                      0.08995027178238685                                      0.09487858212087719
140                      0.025283372602156816                                      0.06207997928730465                                     0.0803960696209406                                       0.08994971291265744                                      0.09487864337897974
160                      0.0252776649762246                                        0.06207451902006312                                     0.08039873410903559                                      0.08994813945446595                                      0.09487861976689131
180                      0.025275677568758058                                      0.06206886786886595                                     0.0803988276772579                                       0.08994966453469819                                      0.09487878832332855
200                      0.025281579092667324                                      0.06207336047414174                                     0.08039647588880248                                      0.08995057189319894                                      0.09487894408321401
220                      0.02528519304498148                                       0.06207771336092147                                     0.0803957451981435                                       0.0899497845744262                                       0.09487896906810005
240                      0.025283656207162365                                      0.062077539596627075                                    0.0803968182129285                                       0.08994900617490004                                      0.09487892352599576
