% Model:              inside_out_baseline_10mins.mph
% Version:            COMSOL 6.3.0.420
% Date:               May 28 2026, 21:50
% Dimension:          2
% Nodes:              151
% Expressions:        21
% Description:        Pressure
% Length unit:        mm
% R                       Z                        p (Pa) @ t=0             p (Pa) @ t=0.5           p (Pa) @ t=1             p (Pa) @ t=1.5           p (Pa) @ t=2             p (Pa) @ t=2.5           p (Pa) @ t=3             p (Pa) @ t=3.5           p (Pa) @ t=4             p (Pa) @ t=4.5           p (Pa) @ t=5             p (Pa) @ t=5.5           p (Pa) @ t=6             p (Pa) @ t=6.5           p (Pa) @ t=7             p (Pa) @ t=7.5           p (Pa) @ t=8             p (Pa) @ t=8.5           p (Pa) @ t=9             p (Pa) @ t=9.5           p (Pa) @ t=10
0                         19.866666666666667       3.9761645931381784       3.9761645931381784       3.9761645931381784       3.9761645931381784       3.9761645931381784       3.9761645931381784       3.9761645931381784       3.9761645931381784       3.9761645931381784       3.9761645931381784       3.9761645931381784       3.9761645931381784       3.9761645931381784       3.9761645931381784       3.9761645931381784       3.9761645931381784       3.9761645931381784       3.9761645931381784       3.9761645931381784       3.9761645931381784       3.9761645931381784
0                         20                       -1.1649729871832695      -1.1649729871832695      -1.1649729871832695      -1.1649729871832695      -1.1649729871832695      -1.1649729871832695      -1.1649729871832695      -1.1649729871832695      -1.1649729871832695      -1.1649729871832695      -1.1649729871832695      -1.1649729871832695      -1.1649729871832695      -1.1649729871832695      -1.1649729871832695      -1.1649729871832695      -1.1649729871832695      -1.1649729871832695      -1.1649729871832695      -1.1649729871832695      -1.1649729871832695
0                         19.733333333333334       7.601419558445438        7.601419558445438        7.601419558445438        7.601419558445438        7.601419558445438        7.601419558445438        7.601419558445438        7.601419558445438        7.601419558445438        7.601419558445438        7.601419558445438        7.601419558445438        7.601419558445438        7.601419558445438        7.601419558445438        7.601419558445438        7.601419558445438        7.601419558445438        7.601419558445438        7.601419558445438        7.601419558445438
0                         19.6                     11.42714171306303        11.42714171306303        11.42714171306303        11.42714171306303        11.42714171306303        11.42714171306303        11.42714171306303        11.42714171306303        11.42714171306303        11.42714171306303        11.42714171306303        11.42714171306303        11.42714171306303        11.42714171306303        11.42714171306303        11.42714171306303        11.42714171306303        11.42714171306303        11.42714171306303        11.42714171306303        11.42714171306303
0                         19.46666666666667        15.360271421781892       15.360271421781892       15.360271421781892       15.360271421781892       15.360271421781892       15.360271421781892       15.360271421781892       15.360271421781892       15.360271421781892       15.360271421781892       15.360271421781892       15.360271421781892       15.360271421781892       15.360271421781892       15.360271421781892       15.360271421781892       15.360271421781892       15.360271421781892       15.360271421781892       15.360271421781892       15.360271421781892
0                         19.333333333333332       19.13415100267059        19.13415100267059        19.13415100267059        19.13415100267059        19.13415100267059        19.13415100267059        19.13415100267059        19.13415100267059        19.13415100267059        19.13415100267059        19.13415100267059        19.13415100267059        19.13415100267059        19.13415100267059        19.13415100267059        19.13415100267059        19.13415100267059        19.13415100267059        19.13415100267059        19.13415100267059        19.13415100267059
0                         19.2                     23.04126938624756        23.04126938624756        23.04126938624756        23.04126938624756        23.04126938624756        23.04126938624756        23.04126938624756        23.04126938624756        23.04126938624756        23.04126938624756        23.04126938624756        23.04126938624756        23.04126938624756        23.04126938624756        23.04126938624756        23.04126938624756        23.04126938624756        23.04126938624756        23.04126938624756        23.04126938624756        23.04126938624756
0                         19.066666666666666       26.846020115357486       26.846020115357486       26.846020115357486       26.846020115357486       26.846020115357486       26.846020115357486       26.846020115357486       26.846020115357486       26.846020115357486       26.846020115357486       26.846020115357486       26.846020115357486       26.846020115357486       26.846020115357486       26.846020115357486       26.846020115357486       26.846020115357486       26.846020115357486       26.846020115357486       26.846020115357486       26.846020115357486
0                         18.933333333333337       30.72638579246806        30.72638579246806        30.72638579246806        30.72638579246806        30.72638579246806        30.72638579246806        30.72638579246806        30.72638579246806        30.72638579246806        30.72638579246806        30.72638579246806        30.72638579246806        30.72638579246806        30.72638579246806        30.72638579246806        30.72638579246806        30.72638579246806        30.72638579246806        30.72638579246806        30.72638579246806        30.72638579246806
0                         18.799999999999997       34.56052111897502        34.56052111897502        34.56052111897502        34.56052111897502        34.56052111897502        34.56052111897502        34.56052111897502        34.56052111897502        34.56052111897502        34.56052111897502        34.56052111897502        34.56052111897502        34.56052111897502        34.56052111897502        34.56052111897502        34.56052111897502        34.56052111897502        34.56052111897502        34.56052111897502        34.56052111897502        34.56052111897502
0                         18.666666666666668       38.41888772922883        38.41888772922883        38.41888772922883        38.41888772922883        38.41888772922883        38.41888772922883        38.41888772922883        38.41888772922883        38.41888772922883        38.41888772922883        38.41888772922883        38.41888772922883        38.41888772922883        38.41888772922883        38.41888772922883        38.41888772922883        38.41888772922883        38.41888772922883        38.41888772922883        38.41888772922883        38.41888772922883
0                         18.53333333333333        42.25838154523802        42.25838154523802        42.25838154523802        42.25838154523802        42.25838154523802        42.25838154523802        42.25838154523802        42.25838154523802        42.25838154523802        42.25838154523802        42.25838154523802        42.25838154523802        42.25838154523802        42.25838154523802        42.25838154523802        42.25838154523802        42.25838154523802        42.25838154523802        42.25838154523802        42.25838154523802        42.25838154523802
0                         18.400000000000002       46.11538235498391        46.11538235498391        46.11538235498391        46.11538235498391        46.11538235498391        46.11538235498391        46.11538235498391        46.11538235498391        46.11538235498391        46.11538235498391        46.11538235498391        46.11538235498391        46.11538235498391        46.11538235498391        46.11538235498391        46.11538235498391        46.11538235498391        46.11538235498391        46.11538235498391        46.11538235498391        46.11538235498391
0                         18.266666666666666       49.96500462751112        49.96500462751112        49.96500462751112        49.96500462751112        49.96500462751112        49.96500462751112        49.96500462751112        49.96500462751112        49.96500462751112        49.96500462751112        49.96500462751112        49.96500462751112        49.96500462751112        49.96500462751112        49.96500462751112        49.96500462751112        49.96500462751112        49.96500462751112        49.96500462751112        49.96500462751112        49.96500462751112
0                         18.133333333333333       53.813678733792905       53.813678733792905       53.813678733792905       53.813678733792905       53.813678733792905       53.813678733792905       53.813678733792905       53.813678733792905       53.813678733792905       53.813678733792905       53.813678733792905       53.813678733792905       53.813678733792905       53.813678733792905       53.813678733792905       53.813678733792905       53.813678733792905       53.813678733792905       53.813678733792905       53.813678733792905       53.813678733792905
0                         18.000000000000004       57.659113612422296       57.659113612422296       57.659113612422296       57.659113612422296       57.659113612422296       57.659113612422296       57.659113612422296       57.659113612422296       57.659113612422296       57.659113612422296       57.659113612422296       57.659113612422296       57.659113612422296       57.659113612422296       57.659113612422296       57.659113612422296       57.659113612422296       57.659113612422296       57.659113612422296       57.659113612422296       57.659113612422296
0                         17.866666666666667       61.51229041670308        61.51229041670308        61.51229041670308        61.51229041670308        61.51229041670308        61.51229041670308        61.51229041670308        61.51229041670308        61.51229041670308        61.51229041670308        61.51229041670308        61.51229041670308        61.51229041670308        61.51229041670308        61.51229041670308        61.51229041670308        61.51229041670308        61.51229041670308        61.51229041670308        61.51229041670308        61.51229041670308
0                         17.733333333333334       65.36431201131896        65.36431201131896        65.36431201131896        65.36431201131896        65.36431201131896        65.36431201131896        65.36431201131896        65.36431201131896        65.36431201131896        65.36431201131896        65.36431201131896        65.36431201131896        65.36431201131896        65.36431201131896        65.36431201131896        65.36431201131896        65.36431201131896        65.36431201131896        65.36431201131896        65.36431201131896        65.36431201131896
0                         17.6                     69.21155489700155        69.21155489700155        69.21155489700155        69.21155489700155        69.21155489700155        69.21155489700155        69.21155489700155        69.21155489700155        69.21155489700155        69.21155489700155        69.21155489700155        69.21155489700155        69.21155489700155        69.21155489700155        69.21155489700155        69.21155489700155        69.21155489700155        69.21155489700155        69.21155489700155        69.21155489700155        69.21155489700155
0                         17.466666666666665       73.05793109778806        73.05793109778806        73.05793109778806        73.05793109778806        73.05793109778806        73.05793109778806        73.05793109778806        73.05793109778806        73.05793109778806        73.05793109778806        73.05793109778806        73.05793109778806        73.05793109778806        73.05793109778806        73.05793109778806        73.05793109778806        73.05793109778806        73.05793109778806        73.05793109778806        73.05793109778806        73.05793109778806
0                         17.333333333333336       76.91059141935014        76.91059141935014        76.91059141935014        76.91059141935014        76.91059141935014        76.91059141935014        76.91059141935014        76.91059141935014        76.91059141935014        76.91059141935014        76.91059141935014        76.91059141935014        76.91059141935014        76.91059141935014        76.91059141935014        76.91059141935014        76.91059141935014        76.91059141935014        76.91059141935014        76.91059141935014        76.91059141935014
0                         17.2                     80.76295505355414        80.76295505355414        80.76295505355414        80.76295505355414        80.76295505355414        80.76295505355414        80.76295505355414        80.76295505355414        80.76295505355414        80.76295505355414        80.76295505355414        80.76295505355414        80.76295505355414        80.76295505355414        80.76295505355414        80.76295505355414        80.76295505355414        80.76295505355414        80.76295505355414        80.76295505355414        80.76295505355414
0                         17.066666666666666       84.60988570220829        84.60988570220829        84.60988570220829        84.60988570220829        84.60988570220829        84.60988570220829        84.60988570220829        84.60988570220829        84.60988570220829        84.60988570220829        84.60988570220829        84.60988570220829        84.60988570220829        84.60988570220829        84.60988570220829        84.60988570220829        84.60988570220829        84.60988570220829        84.60988570220829        84.60988570220829        84.60988570220829
0                         16.933333333333334       88.45636787204168        88.45636787204168        88.45636787204168        88.45636787204168        88.45636787204168        88.45636787204168        88.45636787204168        88.45636787204168        88.45636787204168        88.45636787204168        88.45636787204168        88.45636787204168        88.45636787204168        88.45636787204168        88.45636787204168        88.45636787204168        88.45636787204168        88.45636787204168        88.45636787204168        88.45636787204168        88.45636787204168
0                         16.8                     92.30895135576938        92.30895135576938        92.30895135576938        92.30895135576938        92.30895135576938        92.30895135576938        92.30895135576938        92.30895135576938        92.30895135576938        92.30895135576938        92.30895135576938        92.30895135576938        92.30895135576938        92.30895135576938        92.30895135576938        92.30895135576938        92.30895135576938        92.30895135576938        92.30895135576938        92.30895135576938        92.30895135576938
0                         16.66666666666667        96.16134818854202        96.16134818854202        96.16134818854202        96.16134818854202        96.16134818854202        96.16134818854202        96.16134818854202        96.16134818854202        96.16134818854202        96.16134818854202        96.16134818854202        96.16134818854202        96.16134818854202        96.16134818854202        96.16134818854202        96.16134818854202        96.16134818854202        96.16134818854202        96.16134818854202        96.16134818854202        96.16134818854202
0                         16.53333333333333        100.00836846416516       100.00836846416516       100.00836846416516       100.00836846416516       100.00836846416516       100.00836846416516       100.00836846416516       100.00836846416516       100.00836846416516       100.00836846416516       100.00836846416516       100.00836846416516       100.00836846416516       100.00836846416516       100.00836846416516       100.00836846416516       100.00836846416516       100.00836846416516       100.00836846416516       100.00836846416516       100.00836846416516
0                         16.4                     103.85478101789354       103.85478101789354       103.85478101789354       103.85478101789354       103.85478101789354       103.85478101789354       103.85478101789354       103.85478101789354       103.85478101789354       103.85478101789354       103.85478101789354       103.85478101789354       103.85478101789354       103.85478101789354       103.85478101789354       103.85478101789354       103.85478101789354       103.85478101789354       103.85478101789354       103.85478101789354       103.85478101789354
0                         16.266666666666666       107.70746168817594       107.70746168817594       107.70746168817594       107.70746168817594       107.70746168817594       107.70746168817594       107.70746168817594       107.70746168817594       107.70746168817594       107.70746168817594       107.70746168817594       107.70746168817594       107.70746168817594       107.70746168817594       107.70746168817594       107.70746168817594       107.70746168817594       107.70746168817594       107.70746168817594       107.70746168817594       107.70746168817594
0                         16.13333333333333        111.55973608871757       111.55973608871757       111.55973608871757       111.55973608871757       111.55973608871757       111.55973608871757       111.55973608871757       111.55973608871757       111.55973608871757       111.55973608871757       111.55973608871757       111.55973608871757       111.55973608871757       111.55973608871757       111.55973608871757       111.55973608871757       111.55973608871757       111.55973608871757       111.55973608871757       111.55973608871757       111.55973608871757
0                         16                       115.40653384801212       115.40653384801212       115.40653384801212       115.40653384801212       115.40653384801212       115.40653384801212       115.40653384801212       115.40653384801212       115.40653384801212       115.40653384801212       115.40653384801212       115.40653384801212       115.40653384801212       115.40653384801212       115.40653384801212       115.40653384801212       115.40653384801212       115.40653384801212       115.40653384801212       115.40653384801212       115.40653384801212
0                         15.866666666666669       119.25312025688375       119.25312025688375       119.25312025688375       119.25312025688375       119.25312025688375       119.25312025688375       119.25312025688375       119.25312025688375       119.25312025688375       119.25312025688375       119.25312025688375       119.25312025688375       119.25312025688375       119.25312025688375       119.25312025688375       119.25312025688375       119.25312025688375       119.25312025688375       119.25312025688375       119.25312025688375       119.25312025688375
0                         15.733333333333333       123.10565892974651       123.10565892974651       123.10565892974651       123.10565892974651       123.10565892974651       123.10565892974651       123.10565892974651       123.10565892974651       123.10565892974651       123.10565892974651       123.10565892974651       123.10565892974651       123.10565892974651       123.10565892974651       123.10565892974651       123.10565892974651       123.10565892974651       123.10565892974651       123.10565892974651       123.10565892974651       123.10565892974651
0                         15.600000000000001       126.95814747470276       126.95814747470276       126.95814747470276       126.95814747470276       126.95814747470276       126.95814747470276       126.95814747470276       126.95814747470276       126.95814747470276       126.95814747470276       126.95814747470276       126.95814747470276       126.95814747470276       126.95814747470276       126.95814747470276       126.95814747470276       126.95814747470276       126.95814747470276       126.95814747470276       126.95814747470276       126.95814747470276
0                         15.466666666666667       130.805001994729         130.805001994729         130.805001994729         130.805001994729         130.805001994729         130.805001994729         130.805001994729         130.805001994729         130.805001994729         130.805001994729         130.805001994729         130.805001994729         130.805001994729         130.805001994729         130.805001994729         130.805001994729         130.805001994729         130.805001994729         130.805001994729         130.805001994729         130.805001994729
0                         15.333333333333334       134.65160589248418       134.65160589248418       134.65160589248418       134.65160589248418       134.65160589248418       134.65160589248418       134.65160589248418       134.65160589248418       134.65160589248418       134.65160589248418       134.65160589248418       134.65160589248418       134.65160589248418       134.65160589248418       134.65160589248418       134.65160589248418       134.65160589248418       134.65160589248418       134.65160589248418       134.65160589248418       134.65160589248418
0                         15.2                     138.50411684470419       138.50411684470419       138.50411684470419       138.50411684470419       138.50411684470419       138.50411684470419       138.50411684470419       138.50411684470419       138.50411684470419       138.50411684470419       138.50411684470419       138.50411684470419       138.50411684470419       138.50411684470419       138.50411684470419       138.50411684470419       138.50411684470419       138.50411684470419       138.50411684470419       138.50411684470419       138.50411684470419
0                         15.066666666666668       142.35658294454754       142.35658294454754       142.35658294454754       142.35658294454754       142.35658294454754       142.35658294454754       142.35658294454754       142.35658294454754       142.35658294454754       142.35658294454754       142.35658294454754       142.35658294454754       142.35658294454754       142.35658294454754       142.35658294454754       142.35658294454754       142.35658294454754       142.35658294454754       142.35658294454754       142.35658294454754       142.35658294454754
0                         14.933333333333334       146.2034442771569        146.2034442771569        146.2034442771569        146.2034442771569        146.2034442771569        146.2034442771569        146.2034442771569        146.2034442771569        146.2034442771569        146.2034442771569        146.2034442771569        146.2034442771569        146.2034442771569        146.2034442771569        146.2034442771569        146.2034442771569        146.2034442771569        146.2034442771569        146.2034442771569        146.2034442771569        146.2034442771569
0                         14.8                     150.05004878825196       150.05004878825196       150.05004878825196       150.05004878825196       150.05004878825196       150.05004878825196       150.05004878825196       150.05004878825196       150.05004878825196       150.05004878825196       150.05004878825196       150.05004878825196       150.05004878825196       150.05004878825196       150.05004878825196       150.05004878825196       150.05004878825196       150.05004878825196       150.05004878825196       150.05004878825196       150.05004878825196
0                         14.666666666666666       153.90257687196146       153.90257687196146       153.90257687196146       153.90257687196146       153.90257687196146       153.90257687196146       153.90257687196146       153.90257687196146       153.90257687196146       153.90257687196146       153.90257687196146       153.90257687196146       153.90257687196146       153.90257687196146       153.90257687196146       153.90257687196146       153.90257687196146       153.90257687196146       153.90257687196146       153.90257687196146       153.90257687196146
0                         14.533333333333333       157.75504030363896       157.75504030363896       157.75504030363896       157.75504030363896       157.75504030363896       157.75504030363896       157.75504030363896       157.75504030363896       157.75504030363896       157.75504030363896       157.75504030363896       157.75504030363896       157.75504030363896       157.75504030363896       157.75504030363896       157.75504030363896       157.75504030363896       157.75504030363896       157.75504030363896       157.75504030363896       157.75504030363896
0                         14.399999999999999       161.60192284615837       161.60192284615837       161.60192284615837       161.60192284615837       161.60192284615837       161.60192284615837       161.60192284615837       161.60192284615837       161.60192284615837       161.60192284615837       161.60192284615837       161.60192284615837       161.60192284615837       161.60192284615837       161.60192284615837       161.60192284615837       161.60192284615837       161.60192284615837       161.60192284615837       161.60192284615837       161.60192284615837
0                         14.266666666666667       165.44851128203726       165.44851128203726       165.44851128203726       165.44851128203726       165.44851128203726       165.44851128203726       165.44851128203726       165.44851128203726       165.44851128203726       165.44851128203726       165.44851128203726       165.44851128203726       165.44851128203726       165.44851128203726       165.44851128203726       165.44851128203726       165.44851128203726       165.44851128203726       165.44851128203726       165.44851128203726       165.44851128203726
0                         14.133333333333331       169.30104909100788       169.30104909100788       169.30104909100788       169.30104909100788       169.30104909100788       169.30104909100788       169.30104909100788       169.30104909100788       169.30104909100788       169.30104909100788       169.30104909100788       169.30104909100788       169.30104909100788       169.30104909100788       169.30104909100788       169.30104909100788       169.30104909100788       169.30104909100788       169.30104909100788       169.30104909100788       169.30104909100788
0                         14                       173.15349752625102       173.15349752625102       173.15349752625102       173.15349752625102       173.15349752625102       173.15349752625102       173.15349752625102       173.15349752625102       173.15349752625102       173.15349752625102       173.15349752625102       173.15349752625102       173.15349752625102       173.15349752625102       173.15349752625102       173.15349752625102       173.15349752625102       173.15349752625102       173.15349752625102       173.15349752625102       173.15349752625102
0                         13.866666666666669       177.0004210309335        177.0004210309335        177.0004210309335        177.0004210309335        177.0004210309335        177.0004210309335        177.0004210309335        177.0004210309335        177.0004210309335        177.0004210309335        177.0004210309335        177.0004210309335        177.0004210309335        177.0004210309335        177.0004210309335        177.0004210309335        177.0004210309335        177.0004210309335        177.0004210309335        177.0004210309335        177.0004210309335
0                         13.733333333333334       180.84693248546603       180.84693248546603       180.84693248546603       180.84693248546603       180.84693248546603       180.84693248546603       180.84693248546603       180.84693248546603       180.84693248546603       180.84693248546603       180.84693248546603       180.84693248546603       180.84693248546603       180.84693248546603       180.84693248546603       180.84693248546603       180.84693248546603       180.84693248546603       180.84693248546603       180.84693248546603       180.84693248546603
0                         13.600000000000001       184.6993732739526        184.6993732739526        184.6993732739526        184.6993732739526        184.6993732739526        184.6993732739526        184.6993732739526        184.6993732739526        184.6993732739526        184.6993732739526        184.6993732739526        184.6993732739526        184.6993732739526        184.6993732739526        184.6993732739526        184.6993732739526        184.6993732739526        184.6993732739526        184.6993732739526        184.6993732739526        184.6993732739526
0                         13.466666666666667       188.55193713316407       188.55193713316407       188.55193713316407       188.55193713316407       188.55193713316407       188.55193713316407       188.55193713316407       188.55193713316407       188.55193713316407       188.55193713316407       188.55193713316407       188.55193713316407       188.55193713316407       188.55193713316407       188.55193713316407       188.55193713316407       188.55193713316407       188.55193713316407       188.55193713316407       188.55193713316407       188.55193713316407
0                         13.33333333333333        192.39884436563764       192.39884436563764       192.39884436563764       192.39884436563764       192.39884436563764       192.39884436563764       192.39884436563764       192.39884436563764       192.39884436563764       192.39884436563764       192.39884436563764       192.39884436563764       192.39884436563764       192.39884436563764       192.39884436563764       192.39884436563764       192.39884436563764       192.39884436563764       192.39884436563764       192.39884436563764       192.39884436563764