% Model:              inside_out_baseline_10mins.mph
% Version:            COMSOL 6.3.0.420
% Date:               May 14 2026, 21:49
% Dimension:          2
% Nodes:              321
% Expressions:        21
% Description:        Molar concentration, is
% Length unit:        mm
% R                       Z                        is (mol/m^3) @ t=0       is (mol/m^3) @ t=0.5     is (mol/m^3) @ t=1       is (mol/m^3) @ t=1.5     is (mol/m^3) @ t=2       is (mol/m^3) @ t=2.5     is (mol/m^3) @ t=3       is (mol/m^3) @ t=3.5     is (mol/m^3) @ t=4       is (mol/m^3) @ t=4.5     is (mol/m^3) @ t=5       is (mol/m^3) @ t=5.5     is (mol/m^3) @ t=6       is (mol/m^3) @ t=6.5     is (mol/m^3) @ t=7       is (mol/m^3) @ t=7.5     is (mol/m^3) @ t=8       is (mol/m^3) @ t=8.5     is (mol/m^3) @ t=9       is (mol/m^3) @ t=9.5     is (mol/m^3) @ t=10
0.14925                   10                       0.10000000000000002      0.08855999021538616      0.088907091892224        0.08931808591037396      0.08969639941751717      0.09000288243069458      0.09024720371136656      0.09046094492854925      0.09064797271531447      0.09081466006586016      0.09096571662171203      0.09110415472661715      0.09122304437384887      0.09133268286018525      0.09143275774797524      0.09151951541290122      0.09160404497574205      0.09167622969585554      0.09175696659147381      0.09182106532957535      0.09188272226280662
0.15                      10                       0.1                      0.08831332609517761      0.08866669109057376      0.08908753687712617      0.08947368356827143      0.08978662829855553      0.09003621187969087      0.09025447233138378      0.09044544837816348      0.09061577901087839      0.0907700815298219       0.09091139383396198      0.09103290502580287      0.09114487676359564      0.09124708321326702      0.09133582829950565      0.09142214323148201      0.09149604743901867      0.09157828584012284      0.09164390826165263      0.09170694017204432
0.1483875                 10                       0.10000000000000002      0.08884496144754514      0.08918501387865013      0.08958445919996959      0.0899537090205583       0.09025272444812447      0.09049096451952515      0.09069948116742088      0.09088194817559787      0.09104442550570147      0.09119172795673247      0.09132684751002806      0.0914427079624832       0.09154965101175927      0.09164726383342796      0.09173172276170423      0.09181419083374054      0.09188439039935216      0.09196338945716637      0.09202573047609533      0.09208579648355537
0.147395625               10                       0.10000000000000002      0.08917410312770277      0.08950645276462538      0.0898921432387186       0.09025088845099875      0.09054127665500089      0.09077249143715854      0.0909749660597161       0.0911521690298645       0.09130978316613919      0.0914527394782515       0.09158403240807025      0.09169639410667282      0.09180022467737291      0.09189499622738324      0.0919767937160495       0.09205688357836722      0.09212479565385448      0.0922017774160307       0.09226209773112115      0.09232031883002834
0.14625496875             10                       0.10000000000000002      0.0895540357642511       0.08987837244159476      0.09024733483691945      0.09059387920140458      0.09087430768536084      0.0910974123244312       0.09129289784144529      0.09146403367647948      0.09161603435345993      0.09175395297469326      0.091880842842952        0.09198916688677225      0.0920894063640043       0.09218090420270875      0.09225961659731646      0.0923369669434699       0.09240225104886418      0.09247688145934028      0.09253489136058617      0.09259096644995768
0.1449432140625           10                       0.10000000000000002      0.08999213428646655      0.09030884190378564      0.09065694331203313      0.09098927330160445      0.09125821858892284      0.09147197262559555      0.09165937258329475      0.09182353148618436      0.0919690613555022       0.09210113162364292      0.09222297213818455      0.09232664349325287      0.09242274491530808      0.09251048088525626      0.0925856115990766       0.09265981326857108      0.09272209188624686      0.09279396520993557      0.09284935620929025      0.09290292427500921
0.1434597971491917        10                       0.10000000000000002      0.09048812747138812      0.09079870518130378      0.09112077745446767      0.0914367173998014       0.09169266956104127      0.09189584373874371      0.09207404580347336      0.09223034074161292      0.09236855210923993      0.09249393043992157      0.09261010616950893      0.09270851855872687      0.0927999346471736       0.0928834422986742       0.09295447418099383      0.09302512854529281      0.09308404411443123      0.09315270525713569      0.09320522580800865      0.0932558912248095
0.1397410945424081        10                       0.10000000000000002      0.09172880190175903      0.09203749721972737      0.09228175394973047      0.09255444140059303      0.09277796702487262      0.09295473253854529      0.09310964606007902      0.09324653375963522      0.09336649698780047      0.09347463381658079      0.0935770404782043       0.09366236234888334      0.09374202689531821      0.09381524422322389      0.0938756884969282       0.09393752377368837      0.09398831096651426      0.09404824796032633      0.09409434831813113      0.09413723386422777
0.13039940759667953       10                       0.10000000000000002      0.094655644419214        0.09404811125067691      0.09502087891097354      0.09517886064784305      0.09532677701661312      0.09544247564563771      0.09554054671964453      0.09563169980608684      0.0957119957638179       0.09577567057355771      0.09584558995475852      0.0959044682999125       0.09594941178949963      0.09600153398323956      0.09604116358243489      0.09607265323546882      0.09611543187365283      0.09613797789362505      0.09618332009186437      0.096200774892359
0.1113696909803701        10                       0.10000000000000002      0.09900197721004785      0.09937873005714888      0.09904097046125952      0.09909367177326943      0.09913113240284811      0.09916061543785554      0.0991715586371155       0.09918111969765024      0.0992081848471037       0.09922416418554039      0.09921355468897775      0.09924051566981945      0.09924281460854951      0.0992506962690011       0.09925556462346957      0.09931513379896102      0.0992969308352407       0.09929318498399664      0.09930481184986953      0.09933285239354787
0.07721025198698044       10                       0.10000000000000002      0.09984821773939881      0.09987533751914131      0.0998919928815616       0.09989072706334258      0.09987687572154062      0.09987480473955922      0.09988465211249627      0.09989116973938032      0.09988227162364505      0.09988736296532365      0.09990195539790837      0.09989099397052087      0.09991535913902445      0.09990788114362399      0.09991413151523393      0.09987153917758672      0.09990559260343952      0.09991779841655296      0.09989658057380912      0.09989108115592259
0.038482357293833445      10                       0.10000000000000002      0.09992574029446129      0.09982322374841336      0.09993938904076251      0.09994291534604811      0.09995462757493273      0.09995989035962595      0.099958177932644        0.09995458877225089      0.09996275068454903      0.09995873584187795      0.09995786131978589      0.09996223788493509      0.09993654119815222      0.09994920451869546      0.09994137032571229      0.09995415663752584      0.09993607769910905      0.09992738067207607      0.09995635441999387      0.09994611867670035
0.01951860870711373       10                       0.10000000000000002      0.09994711733140506      0.09991719812968752      0.09997400378129932      0.09996201587191762      0.09998537078878768      0.09997539145649499      0.09997512432131195      0.09998459427687215      0.09997566721990449      0.09997411448078715      0.09998013539575275      0.0999707653962629       0.09996389905090548      0.09996871696660899      0.09997562461824333      0.09999827688587261      0.09994990266029774      0.09997451200801888      0.09996699477120366      0.09996576641701595
0.011010771743765923      10                       0.1                      0.09996355668861084      0.09996067783022498      0.0999793093791537       0.0999818865364364       0.09998887271633956      0.09998187233101936      0.09998503124102008      0.09998973113865918      0.09998528913565725      0.09998276501743637      0.09998521657114957      0.09998508272500052      0.09998134163822127      0.09997832590810628      0.09998751753780445      0.09998353997778366      0.09997857889329465      0.0999899572585865       0.09998100691128783      0.0999761837867237
0.006909269245618974      10                       0.10000000000000002      0.10002291918048624      0.09997703289872768      0.09998363702808875      0.0999883948853087       0.09999082284300592      0.09998777111025672      0.09999178661620389      0.09999376653334309      0.09999001954074202      0.0999890189079521       0.09999199006598027      0.09999155558247998      0.09998672780525907      0.09998504301382789      0.09999329407573541      0.09999303940717826      0.09998368701699442      0.09999456068440105      0.0999894561488306       0.09998474918942131
0.005056785937500004      10                       0.10000000000000002      0.10002888974394353      0.09998387733794983      0.09998542102873605      0.09999055921141331      0.09999177351051157      0.0999894800227993       0.09999299838296598      0.09999444124655031      0.09999131919623372      0.09999057522031879      0.09999316356598804      0.09999281487588231      0.09998823256364688      0.09998845704980971      0.09999491140964474      0.09999370506462474      0.0999864612266657       0.09999776608626526      0.09998941008640184      0.09998735783577618
0.003745031250000003      10                       0.10000000000000002      0.10003151067007372      0.09998812710923906      0.09998639086138987      0.09999153391127591      0.09999194395884736      0.099990460447206        0.09999374446850977      0.09999483704964446      0.09999203213901052      0.0999914727061594       0.09999384667697263      0.09999338228393802      0.09998908712950755      0.09999017413608276      0.09999576556393214      0.09999412624060823      0.09998793990216762      0.09999675683155075      0.09998245106809046      0.09998845642223653
0.0026043750000000025     10                       0.10000000000000002      0.10003292511391582      0.09999308194513508      0.09998702075327974      0.09999207073127997      0.09999164317577437      0.0999910768117416       0.09999412443077191      0.09999504338346485      0.09999250427354749      0.09999203685089207      0.09999422097849525      0.09999369651455949      0.09998962234104049      0.09999115844603858      0.09999615014680285      0.09999421800643273      0.09998899464786654      0.09999714226121272      0.09998139994825232      0.09998898890372493
0.0016125000000000015     10                       0.10000000000000002      0.10003357797700867      0.09998759547728728      0.09998737103704759      0.09999238300875109      0.09999229306241916      0.0999914084535539       0.09999425828202808      0.0999951728779196       0.0999928030094147       0.09999233783555224      0.0999943815142491       0.09999384154946576      0.09998993245891846      0.09999166620258639      0.09999628095435435      0.09999432741736071      0.09998962574286112      0.09999939097342422      0.09998820220183725      0.09998913437555676
7.500000000000007E-4      10                       0.10000000000000002      0.10003407534747878      0.09998447938604528      0.09998753540811826      0.09999255960634203      0.0999928889408191       0.09999153942557913      0.09999437559085644      0.09999526186955289      0.09999292317948033      0.09999243788995167      0.099994438784437        0.09999390357351728      0.09999009139796011      0.09999189226751436      0.09999631787814038      0.09999445468739389      0.09998988625631774      0.10000069142539125      0.09999094418407735      0.09998923583650658
0                         10                       0.10000000000000002      0.10003424061344106      0.09998418302745922      0.09998757446809302      0.09999262100220888      0.09999302647162443      0.09999159791803337      0.09999440906550251      0.09999529342998337      0.09999297393339521      0.09999247469310478      0.09999446514161045      0.09999393535645126      0.09999015223935494      0.0999919859459942       0.0999963200197645       0.09999449307026331      0.09998998606284064      0.10000097645930821      0.09999130083245274      0.09998932769238329
0.2495                    10                       0.06855149731726812      0.032482015538637714     0.035219361721380085     0.0377820499624524       0.039827384310992926     0.04150155022091895      0.042867580406167685     0.04405159385786056      0.04508983252616691      0.046042353350766174     0.046898305947439343     0.04766508133743915      0.04835455654526998      0.04897739295920343      0.04954527984792754      0.050066726765348124     0.050548871249970075     0.050996601145201166     0.05141660406572119      0.05181054645238751      0.05218002563699851
0.25                      10                       0.03562282762107619      0.032263030994519035     0.03501510460349817      0.03758565463862652      0.03963656126581222      0.04131530859478115      0.04268516491832219      0.04387253746739705      0.0449137566218224       0.04586904396033088      0.046727506079486156     0.047496543530528075     0.04818807795794139      0.048812787905887174     0.04938238989775531      0.0499054297366424       0.050389052452146095     0.050838167596111726     0.051259451650964016     0.051654608638521206     0.052025243882998694
0.24892499999999998       10                       0.08987809302407489      0.03273446038061202      0.03545487945557176      0.03800848728029093      0.04004738263858764      0.04171625555265734      0.043077866694655784     0.04425800138376373      0.045292799118720584     0.04624212638570409      0.04709518252176511      0.047859347461094874     0.048546446540876725     0.04916712135382759      0.04973302961884225      0.05025263895067681      0.05073307831828113      0.05117921039929889      0.051597735775073914     0.05199027728220183      0.05235842319680415
0.24826375                10                       0.09790044816772149      0.033025583659775086     0.03572655024380701      0.03826966368273948      0.040301113326734056     0.04196386701466209      0.04332037109867061      0.04449602426992302      0.04552684720414185      0.04647248588369938      0.04732219715715255      0.048083348039685656     0.048767703929603834     0.04938588356993358      0.049949508121948795     0.05046699663449435      0.05094546828519196      0.05138975654038271      0.05180657711653321      0.05219750218554866      0.05256410979636456
0.24750331250000004       10                       0.09974017381170674      0.03336145128506929      0.036040067423273696     0.03857104388281723      0.04059387682066426      0.042249550615895054     0.0436001482324308       0.04477061989558036      0.04579684830345976      0.046738223894256255     0.04758407009775727      0.048341738848679525     0.0490229259512045       0.04963822376346474      0.05019921103860209      0.05071425052762294      0.05119045023828397      0.05163260967860147      0.05204746227492546      0.052436521233337294     0.0528013531001937
0.246628809375            10                       0.0999857339030047       0.03374912555244714      0.03640206776535328      0.03891899651701244      0.040931848531978565     0.042579323731023085     0.04392308468256553      0.045087560790837984     0.04610847431389069      0.04704491920876617      0.0478862960654816       0.0486399391800932       0.04931746343685867      0.04992943071558335      0.050487370510682306     0.05099958023511723      0.0514731551797456       0.05191285530598322      0.05232543482309898      0.05271233817722255      0.053075119046775886
0.24563825253265575       10                       0.10000003120646128      0.0341900732901869       0.036813980718333604     0.03931487740080923      0.041316332153774206     0.042954448543831986     0.044290409225161975     0.04544804710458344      0.04646290071453294      0.047393724701297955     0.048230007697129075     0.04897906395566943      0.04965241538749659      0.05026058916981544      0.05081505842878131      0.051324045722615015     0.05179463214314945      0.052231532423805946     0.05264152442857279      0.05302597398249515      0.05338642023062586
0.24315180526756483       10                       0.09999999653336507      0.0353056691737833       0.037856907220717634     0.04031703317012101      0.04228944082937752      0.04390371645596572      0.045219825155284554     0.04636007172951937      0.04735952198545391      0.048276063268007284     0.04909940922894536      0.049836821185082286     0.05049958257592036      0.05109813279919094      0.051643800297690674     0.05214461623850201      0.05260762693776132      0.05303742982121825      0.05344086606547538      0.0538190966616512       0.054173627934801925
0.23693336059768197       10                       0.1000000006735747       0.03815071901889499      0.04052201713396113      0.04287686764538196      0.04477388818593521      0.04632635726566767      0.04759111229006813      0.048686443697951456     0.0496461666282861       0.05052589909167619      0.051315941692124764     0.05202341182227684      0.05265896081481186      0.05323280549742541      0.05375589262506332      0.05423575105364546      0.0546793477135135       0.055090964391876066     0.05547762081113862      0.05583992301407518      0.056179314607965505
0.22433451315122438       10                       0.09999999985951537      0.04416311232937627      0.046181057183088625     0.04830869369196983      0.05004079362586036      0.05145827084934518      0.052611327375941985     0.05360927443732825      0.05448308621455565      0.05528333290255101      0.056001620213818395     0.05664472420288123      0.05722184429923273      0.05774274631257677      0.05821750864201963      0.05865253198110222      0.05905467298441276      0.059427454774497804     0.05977837291584651      0.060106683234490546     0.06041382080936607
0.20145578756928442       10                       0.1000000000364794       0.05600014755960507      0.057429126526227225     0.059100314068982474     0.06048975989891921      0.06162697143985705      0.06254951861793495      0.0633474849404944       0.0640455632222057       0.06468353781985264      0.06525586933471138      0.06576853410247646      0.06622739353372896      0.06664151412748526      0.06701898770997519      0.06736374760425147      0.06768276910942611      0.06797757962100404      0.0682571877247362       0.06851725281666313      0.06875993480871963
0.17608990706593908       10                       0.09999999998726182      0.07076210782419733      0.07162560992144208      0.07272729228534462      0.073666333047436        0.07443437737916425      0.07505496004901584      0.07559226599695561      0.07606209888785219      0.07648959617554937      0.07687339032267541      0.07721825523736324      0.07752493450022789      0.07780230346556717      0.0780553046997345       0.07828444222035087      0.07849775103171719      0.0786928733637788       0.07888240368215055      0.07905500970080616      0.07921596425858851
0.16301231143072156       10                       0.10000000000446019      0.07921186049764713      0.07981310477299117      0.08058977025940633      0.0812640122775749       0.08181436875207448      0.08225738196763262      0.08264186052901651      0.08297808486770747      0.0832823918120225       0.08355614922167731      0.08380333887479258      0.08402126934546783      0.08421922462651248      0.0843998877227039       0.08456172093745251      0.08471394857399328      0.08485101550535691      0.08498881179369638      0.08511028434096778      0.08522410488134849
0.15684405767190668       10                       0.09999999999794301      0.08343235352127197      0.08391472278335366      0.08452771362304261      0.08506860395842411      0.08550914701063683      0.08586266807044082      0.08617021557327825      0.08643920942721608      0.08668151337589221      0.08689996261671329      0.08709811103745461      0.087271413294962        0.08742953195643355      0.08757386707241688      0.08770186975066331      0.08782353177063053      0.08793138156068675      0.08804337950566583      0.08813904724213494      0.0882293064989353
0.1543861822257164        10                       0.10000000000037161      0.08516072575412453      0.08559642471605117      0.08614182159484418      0.08662796974238691      0.08702339053813883      0.08734015127817496      0.08761611315317516      0.08785750709297363      0.0880743523717033       0.08827010495176321      0.08844813842174587      0.08860312014861971      0.08874490445010996      0.08887433359313987      0.08898844927093338      0.08909759252270025      0.08919343996661294      0.08929488923938816      0.08937994159795469      0.089460555210723
0.153371190625            10                       0.10000000000020427      0.08588239656438947      0.0862989353424337       0.0868159739094507       0.08727925063439226      0.08765580946894423      0.08795720541913478      0.08821996782757563      0.0884498282378351       0.08865603378992162      0.08884230316965665      0.08901193369999405      0.08915925929667214      0.08929422084197547      0.0894174217084477       0.08952573413789587      0.0896296507489284       0.08972048069306603      0.08981752904782406      0.0898981410049021       0.08997472824986202
0.15249668749999998       10                       0.10000000000000743      0.08650785113704688      0.08690793330722796      0.08740032861249392      0.08784376981405312      0.08820397281374943      0.08849204624965018      0.08874336445405429      0.08896322521319859      0.08916020566788944      0.08933825350589253      0.08950059994987412      0.08964128738780265      0.08977033490609106      0.08988813642959678      0.0899914171116249       0.09009080428085753      0.09017728308726057      0.09027051842691607      0.09034727871781939      0.09042037715295245
0.15173625                10                       0.10000000000000066      0.0870546276705873       0.08744043886523167      0.08791123329916174      0.088337328570395        0.0886832264286941       0.08895964832366911      0.08920095852533029      0.08941207460437778      0.08960098737227057      0.08977184595964255      0.08992782343856597      0.09006270562755753      0.09018658241950506      0.09029966244531344      0.09039854274255926      0.09049397059577352      0.09057664349478817      0.09066654688020308      0.09073993717261312      0.09080998628152956
0.151075                  10                       0.1000000000000001       0.08753230450797264      0.08790573589016515      0.08835761264795636      0.08876855015844543      0.08910194580698771      0.08936818509034486      0.08960074962622239      0.08980422404666027      0.08998608647948303      0.09015066299575177      0.09030107558499219      0.09043088461094591      0.09055024370447184      0.09065919792497179      0.09075423276545304      0.09084620198172735      0.09092554835626661      0.09101254198684493      0.09108298600703485      0.09115037166255474
0.1505                    10                       0.10000000000000002      0.08794936949261084      0.08831205846023953      0.0887473805790822       0.08914508087636025      0.0894675571393648       0.08972490329247085      0.08994983013455156      0.09014663101990691      0.09032233611096714      0.09048142669748029      0.09062697995278121      0.09075235839413165      0.09086777274735748      0.09097312395054236      0.0910648004103401       0.09115375012220801      0.09123019086816847      0.0913146448408692       0.09138251479608321      0.09144757537621298
0.26990000000000003       10                       8.378798624298074E-9     0.02851285606032793      0.03152977468249452      0.03422948444496104      0.03637124677963538      0.03812501512904267      0.039557926909746514     0.04080091117699722      0.0418916636119179       0.042893031694175875     0.0437934208987733       0.04460036503100992      0.045326480026737476     0.04598272881848491      0.0465812575611672       0.04713119008640747      0.04763981416302655      0.048112375221428166     0.04855539131249525      0.048971137639643954     0.049361393487822355
0.27                      10                       7.098434318267567E-9     0.028494828276137623     0.03151307568662196      0.03421337761292261      0.0363555536056371       0.03810966533086992      0.0395428678635316       0.04078610988901561      0.04187709290452199      0.04287867604168262      0.04377926157408271      0.04458638379612786      0.045312661642761494     0.04596905935178386      0.046567724962381464     0.0471177848769235       0.047626527604491264     0.04809920002973014      0.048542319578124014     0.04895816387471593      0.049348513193502135
0.26978500000000005       10                       1.0138947644816757E-8    0.02853359781158719      0.0315489882092191       0.03424801628518996      0.03638930239531022      0.0381426754582055       0.039575252560576084     0.04081794014545278      0.04190842719289847      0.04290954776425094      0.04380971101990422      0.044616450200495254     0.04534237778715787      0.04599845520971004      0.04659682645290145      0.04714661238805651      0.04765509993277235      0.048127532842474736     0.04857042988903674      0.04898606348603086      0.04937621178202992
0.26965275000000005       10                       1.2633121472122717E-8    0.0285574637918569       0.03157109657748542      0.03426933979064351      0.036410077557444055     0.03816299550589524      0.039595187313265785     0.040837533368851396     0.0419277149298618       0.04292855060198539      0.04382845378879739      0.044634957078673876     0.0453606689721958       0.046016549168885125     0.0466147391534963       0.04716435638779432      0.047672686810573885     0.048144972247591435     0.048587732302221284     0.0490032361731271       0.04939326070342062
0.26950066250000004       10                       1.6302628057583567E-8    0.028584926827127526     0.03159653815894934      0.03429387755856408      0.03643398382409637      0.0381863776830759       0.03961812585215596      0.04086007869310892      0.0419499085598535       0.0429504162515691       0.04385002005808314      0.04465625181383687      0.04538171543167862      0.04603736861841275      0.04663534997810099      0.04718477304461069      0.04769292263125893      0.04816503834011774      0.0486076407339229       0.049022995305460844     0.04941287739838778
0.2693257618750001        10                       2.195665432268127E-8     0.028616532024336987     0.03162581842491677      0.034322116823490255     0.03646149566312988      0.03821328588248812      0.03964452314095193      0.040886023181681316     0.04197544809068435      0.042975578146631103     0.04387483726727037      0.04468075641494469      0.045405934213242016     0.04606132607354182      0.046659067279566306     0.04720826683895991      0.047716208270942584     0.04818812861429858      0.048630549539191416     0.04904573226507223      0.049435450413655276
0.2691041462664882        10                       3.270605606057629E-8     0.02865661393305428      0.03166295337046148      0.03435793098014447      0.03649638631246005      0.038247410188569114     0.039677998925137445     0.0409189242783544       0.04200783525899226      0.043007486087433704     0.04390630783783811      0.04471183033474607      0.045436645491894155     0.046091705808045086     0.046689142341443376     0.047238058357830535     0.04774573573901302      0.048217408247554716     0.04865959899626081      0.049074563729716275     0.04946407392561231
0.2685826166327053        10                       8.19002307615023E-8      0.028751091726106615     0.03175049475235773      0.03444235291385683      0.03657862685896569      0.038327841006846705     0.03975689869710953      0.04099646758151851      0.042084165715075256     0.04308268569895292      0.04398047550377682      0.04478506225403246      0.045509021975059946     0.04616330028871825      0.04676001825932749      0.047308265572947504     0.047815320262214064     0.04828640834697292      0.048728056347670655     0.04914250706442518      0.04953152693302725
0.26740219078590927       10                       7.666283435061636E-7     0.028965734693369844     0.031949432344585964     0.03463417053219633      0.03676546453758774      0.03851054953811852      0.03993611627257514      0.04117259364955841      0.04225752869351662      0.04325347298861189      0.044148913015756595     0.04495136969206584      0.045673382568126135     0.04632588155599219      0.046920964858956006     0.04746769108265853      0.04797332954345535      0.04844308858435375      0.048883502480082906     0.04929678446160233      0.049684689525439876