% Model:              outside_in_originalconfiguration_baseline_10mins.mph
% Version:            COMSOL 6.3.0.420
% Date:               May 14 2026, 21:50
% Dimension:          2
% Nodes:              121
% Expressions:        21
% Description:        Molar concentration, is
% Length unit:        mm
% r                       z                        is (mol/m^3) @ t=0       is (mol/m^3) @ t=0.5     is (mol/m^3) @ t=1       is (mol/m^3) @ t=1.5     is (mol/m^3) @ t=2       is (mol/m^3) @ t=2.5     is (mol/m^3) @ t=3       is (mol/m^3) @ t=3.5     is (mol/m^3) @ t=4       is (mol/m^3) @ t=4.5     is (mol/m^3) @ t=5       is (mol/m^3) @ t=5.5     is (mol/m^3) @ t=6       is (mol/m^3) @ t=6.5     is (mol/m^3) @ t=7       is (mol/m^3) @ t=7.5     is (mol/m^3) @ t=8       is (mol/m^3) @ t=8.5     is (mol/m^3) @ t=9       is (mol/m^3) @ t=9.5     is (mol/m^3) @ t=10
0.14924999999999997       10                       1.897659040900118E-11    0.0629430806216248       0.075886648312536        0.08284100405176924      0.08729524298883673      0.0905829108052777       0.09307200726244863      0.0949675219985496       0.09639817465055814      0.09746059298583366      0.09823713856815515      0.09879762399963228      0.09919798188039083      0.09948142051603984      0.09968067298290202      0.09982016556029565      0.09991693974137723      0.09998186658754746      0.10002527940201175      0.10005464904228807      0.10007483854319796
0.15                      10                       7.243170118575226E-11    0.06301776080374347      0.07592028351450007      0.08286012292712583      0.0873080647637346       0.09059233783370459      0.09307927245498628      0.09497312108788465      0.09640239396154489      0.09746369961097548      0.0982393873554308       0.09879923210857629      0.09919912209506467      0.09948222345492631      0.09968123435201307      0.09982055753220079      0.09991721084989134      0.09998205115112871      0.10002540321515287      0.10005473298770759      0.10007489819978485
0.1483875                 10                       3.852007657598116E-12    0.06285749192999353      0.07584813055048477      0.08281911694942945      0.08728056930988022      0.09057212405634939      0.09306369420466327      0.0949611148839646       0.09639334611804493      0.09745703763644416      0.0982345648863369       0.0987957835424074       0.09919667690925327      0.09948050153663666      0.09968003048274057      0.09981971693718254      0.09991662943380189      0.09998165532132225      0.10002513768472356      0.10005455297413819      0.10007477026223288
0.14739562499999997       10                       5.585654404595151E-13    0.06275945647529607      0.0758040513048621       0.08279407891590328      0.0872637891268975       0.09055979124711473      0.0930541896959114       0.09495378887835536      0.09638782467662096      0.09745297187126227      0.09823162161765146      0.09879367877031532      0.09919518451060146      0.09947945054284558      0.09967929568273372      0.09981920386328111      0.09991627452507257      0.09998141366706094      0.10002497559549155      0.10005444311771951      0.10007469216849814
0.14625496875             10                       4.9770131214840626E-14   0.06264723862080754      0.07575364756033502      0.08276546054152717      0.08724461721563263      0.09054570381140811      0.09304333303745733      0.09494541985618339      0.09638151659864798      0.09744832658097562      0.09822825868751296      0.09879127386559416      0.09919347928089822      0.09947824963332087      0.09967845606636912      0.09981861759753737      0.0999158689592119       0.09998113749147045      0.10002479036785994      0.10005431760778956      0.10007460292966715
0.1449432140625           10                       1.3461144727193821E-15   0.06251888739598166      0.07569606557764255      0.08273278226321035      0.08722273561564718      0.09052962949600739      0.09303094529635954      0.0949358695480334       0.09637431743640545      0.09744302473037275      0.09822442026714669      0.09878852889272766      0.0991915328945678       0.0994768788446664       0.09967749767537044      0.09981794839157948      0.09991540597991692      0.09998082218086629      0.10002457891562311      0.1000541743660394       0.10007450105914557
0.14135879501807963       10                       -1.6102809871813103E-16  0.06217204216378413      0.075540822616117        0.08264476369152857      0.08716385087140575      0.09048639609363195      0.09299763005897506      0.094910180303268        0.09635494903370558      0.09742875897262986      0.09821409123508175      0.09878114210420533      0.09918629498069392      0.09947318967140986      0.09967491836430165      0.09981614733280804      0.09991415974018443      0.0999799731701853       0.10002400966121429      0.1000537889578756       0.10007422682782922
0.13163502609046748       10                       3.038725077045925E-17    0.061260875895751056     0.07513547310596612      0.08241550378617246      0.08701084059086565      0.09037419754763015      0.09291117076273787      0.09484348964283944      0.0963046570012555       0.09739170993895453      0.09818726207680785      0.09876195578724438      0.09917268991805979      0.09946360573632997      0.09966821797596193      0.09981146855646046      0.0999109206942629       0.09997776403707438      0.10002252909798266      0.1000527882697554       0.10007351364866657
0.11221343195770586       10                       -8.992429341507913E-18   0.05958239379043624      0.07439789592751969      0.08200036703970051      0.08673509802008085      0.09017255587772566      0.09275581921986245      0.09472349134743095      0.09621405013856806      0.0973248929492858       0.09813888204773384      0.09872738182502827      0.09914818222044824      0.09944633828872218      0.09965615287878744      0.09980304540834492      0.09990508191243024      0.09997377093025595      0.10001985748787691      0.10005099087904791      0.10007222523964407
0.09401976624030282       10                       2.5693905848646058E-18   0.05820389880327227      0.07380085968288706      0.0816662170376683       0.08651439450560004      0.09001169759326849      0.09263194109549815      0.09462768586372729      0.09614166874157072      0.09727152916820399      0.09810020831260467      0.09869974290016703      0.09912858698066411      0.09943251589013034      0.09964650099956009      0.09979630656648843      0.09990039698156752      0.09997055650540383      0.10001771840920978      0.10004956359390345      0.10007118760122655
0.07499999999999998       10                       -7.702843068821867E-19   0.05698584283750611      0.07327963871602848      0.08137583746797364      0.08632350756668881      0.08987297502918264      0.09252518456273576      0.0945450480872745       0.09607931402936465      0.09722554749629146      0.0980668459359006       0.09867591137727855      0.0991116933747195       0.09942057577895917      0.09963817765009036      0.09979049961139261      0.0998963366800545       0.09996775267493403      0.1000158729326693       0.10004835274102716      0.10007028326943905
0.055982878250147756      10                       2.436194009161324E-19    0.05601624345155444      0.07286889030709574      0.0811478834081845       0.08617428783161585      0.08976482841566376      0.09244206912186285      0.09448098632703715      0.09603103062280023      0.09718992292514753      0.09804093832416125      0.09865741229570989      0.09909858695611619      0.09941127034089722      0.09963171123142696      0.09978600831959668      0.09989315503511538      0.09996551765003281      0.10001443619825319      0.10004745328604549      0.1000695799088108
0.03779005796685096       10                       -8.021733565720618E-20   0.05533640730612256      0.07258306615225373      0.08098975432052755      0.08607119239452322      0.08969032196702091      0.09238551765711969      0.094437633743368        0.0959983491760081       0.09716579192111287      0.0980233104698789       0.09864481062061049      0.09908968780351603      0.09940489015151618      0.09962727627800853      0.09978299291988713      0.09989097381230992      0.09996390324746131      0.1000134288728285       0.10004690260327828      0.10006917724390751
0.01836722338669411       10                       3.759276343693196E-20    0.05488454028918018      0.07239408856367623      0.08088555366794854      0.08600370290761727      0.08964190025111657      0.09235092946526618      0.09441183183646344      0.09597870332202282      0.09715118224824212      0.09801250662367193      0.09863697283561702      0.0990841271674622       0.09940084525734208      0.09962442679016764      0.09978110196674989      0.09988959220386094      0.09996280558760653      0.1000127241788421       0.10004657349208919      0.10006908565061623
0.008641431405166078      10                       -1.7786419696650124E-20  0.054774646548298854     0.07234829627512884      0.08086053340504548      0.08598874021477697      0.08963128844892662      0.09234240738701996      0.09440511621862714      0.09597347530712147      0.09714730620108998      0.09800967021965248      0.0986349347942491       0.09908268938134893      0.09939979969342629      0.09962369249434169      0.09978062136425242      0.0998892414008868       0.0999625261290217       0.10001253341682834      0.10004648559815425      0.1000691508518158
0.0050567859375           10                       5.529856216513957E-21    0.054754497206588315     0.07233993065175948      0.08085612358055999      0.08598586034337757      0.08962908482810929      0.09234076550490794      0.09440383379754642      0.09597247774720095      0.09714657194028671      0.09800913540035909      0.09863455211185372      0.09908242003551987      0.09939960381464795      0.0996235551980713       0.09978053185503526      0.099889176066439        0.09996247391063752      0.10001249802069316      0.10004646950760805      0.1000691839482926
0.0037450312499999997     10                       2.249775758165938E-22    0.054749840438415985     0.0723380088194317       0.08085517159203097      0.08598515443545152      0.08962856296675605      0.09234038381825005      0.0944035349334671       0.09597224523138267      0.09714640109741116      0.09800901105383394      0.09863446318467382      0.09908235746632389      0.0993995583117498       0.09962352331116966      0.09978051107889392      0.0998891609035876       0.0999624617826953       0.1000124898064924       0.1000464657794642       0.10006919344892241
0.002604375               10                       2.3146489763173212E-23   0.05474691991109717      0.0723368150511323       0.08085463244163993      0.08598470493492337      0.08962823407535699      0.09234014448574618      0.09440334681308327      0.09597209879865469      0.09714629355777371      0.09800893278429433      0.09863440720846164      0.09908231808252073      0.09939952966938603      0.09962350323870749      0.09978049800188762      0.09988915136050659      0.09996245414689621      0.1000124846345392       0.10004646343302483      0.10006919987975597
0.0016125                 10                       4.1929490398163064E-24   0.05474523443154755      0.07233616942516377      0.0808543677995033       0.08598443852960622      0.08962804309103756      0.09234000578310925      0.09440323729153112      0.09597201354917174      0.09714623097704202      0.09800888723466435      0.09863437463220721      0.09908229516307139      0.09939951300061291      0.09962349155700892      0.09978049039187806      0.09988914580729721      0.09996244970255959      0.10001248162418279      0.10004646206760814      0.1000692037178353
7.5E-4                    10                       1.2810343729079389E-24   0.05474440619301416      0.0723360023351121       0.08085427118310592      0.08598430247697157      0.08962794851989865      0.09233993670618235      0.09440318251952932      0.0959719709500218       0.09714619971177098      0.09800886447569869      0.09863435835564287      0.09908228371172165      0.09939950467220611      0.09962348572028609      0.09978048658970906      0.0998891430328347       0.09996244748183448      0.100012480119971        0.10004646138543442      0.10006920565144595
0                         10                       7.335158774629603E-25    0.05474408898514717      0.07233610553313707      0.08085424531797303      0.08598425373951081      0.0896279154365509       0.09233991239970468      0.09440316320097626      0.09597195593649879      0.09714618869346134      0.09800885645449257      0.09863435261922184      0.09908227967592562      0.0993995017370073       0.0996234836632326       0.0997804852497262       0.09988914205505271      0.09996244669916038      0.10001247958982759      0.10004646114502587      0.10006920633565075
0.16990000000000002       10                       0.03281024664509031      0.06507608210509845      0.07685514446714009      0.08339218693505955      0.08766510879548225      0.09085438685618169      0.09328030808349023      0.09512697333396136      0.09651723356518112      0.09754714069516505      0.0982986534143062       0.09884046221151195      0.09922717991797922      0.09950078173410809      0.09969298483427476      0.09982750417255827      0.09992072174449722      0.09998312697880046      0.10002486802786993      0.10005314021986346      0.10007259408553999
0.16999999999999996       10                       0.03554242233858968      0.06508676941893031      0.07686003962555431      0.08339497746210413      0.08766698331736766      0.0908557608835486       0.0932813579211444       0.09512777163541454      0.09651782421175092      0.09754756454428078      0.09829894900657528      0.0988406622099202       0.09922731010400866      0.09950086155346187      0.09969302851258831      0.09982752188308824      0.09992072165691736      0.09998311434112526      0.10002484707645207      0.10005311374993216      0.10007256361731846
0.169785                  10                       0.02922443166166906      0.06506379560439655      0.0768495173760487       0.08338897923685516      0.08766295407713592      0.09085280742959959      0.09327910125964098      0.09512605559914697      0.09651655449114134      0.09754665332824876      0.09829831346041618      0.0988402321303002       0.09922703007702778      0.0995006897827645       0.09969293442071583      0.09982748359986382      0.09992072163523913      0.09998314129896155      0.10002489190721632      0.10005317043665397      0.10007262889552489
0.16965275                10                       0.02536144774246215      0.0650496713078337       0.07684304931973994      0.08338529224672697      0.08766047744978857      0.09085099202132538      0.09327771405954334      0.09512500061654769      0.09651577378015774      0.09754609293501422      0.09829792248322451      0.09883996742696707      0.09922685759181812      0.09950058382818197      0.09969287620232621      0.09982745966659547      0.09992072123166014      0.09998315748587537      0.10002491908440769      0.10005320488996806      0.10007266862468
0.16950066249999998       10                       0.0213309574554715       0.06503343522850086      0.07683561515626941      0.08338105467295381      0.08765763104638123      0.09084890553488967      0.0932761196355641       0.09512378793201616      0.09651487625894674      0.097545448586812        0.09829747281935171      0.0988396628725615       0.09922665901128863      0.09950046170175489      0.09969280892989486      0.09982743177505594      0.09992072039958916      0.09998317573003383      0.10002494996249918      0.10005324411940242      0.10007271391311867
0.16932576187499998       10                       0.017275893762824086     0.06501477283038312      0.07682707129768214      0.0833761847249016       0.0876543599552469       0.0908465077064163       0.09327428718028381      0.09512239406618543      0.09651384450151614      0.09754470772380636      0.09829695565265024      0.09883931244220452      0.09922643034905879      0.09950032088750149      0.0996927311414182       0.09982739920637607      0.09992071895553234      0.0999831962218852       0.10002498497544707      0.10005328871449146      0.10007276546531085
0.16884787833473006       10                       0.009123372212856298     0.06496383104980029      0.0768037564472894       0.08336289630286081      0.08764543471594316      0.09083996498768909      0.09326928651698019      0.09511858952428176      0.0965110275552816       0.09754268420268232      0.09829554229884567      0.09883835390258484      0.0992258039625348       0.09949993412477091      0.09969251628012775      0.09982730748568026      0.09992071234954158      0.09998324954328831      0.10002507791393012      0.1000534077172656       0.10007290342070338
0.16755184497021197       10                       8.797081496872852E-4     0.06482604524591278      0.07674074533108419      0.08332698928587379      0.08762132075652261      0.09082228665467651      0.09325577019650187      0.09510830056382855      0.0965034037048989       0.09753720187472095      0.0982917070663878       0.09883574651018213      0.09922409327745792      0.09949887032983758      0.09969191647251192      0.09982703874586238      0.09992067481895889      0.0999833742484287       0.10002530961494689      0.10005370935397004      0.10007325596895401
0.1649622934691954        10                       -1.30424078305298E-4     0.06455238915133686      0.07661581416952931      0.08325582376654286      0.08757354055772394      0.09078725182420884      0.09322896358834694      0.0950878698751942       0.09648823981701503      0.09752627177281308      0.09828403413424011      0.09883050213878826      0.09922062257293136      0.0994966791185245       0.09969064278276825      0.09982641627814842      0.09992051398752437      0.09998353503466868      0.10002567895345472      0.10005421853142468      0.10007386539689424
0.16253628354922137       10                       1.6879440236214337E-5    0.06429806556895425      0.07649996190493395      0.08318985941369117      0.08752926566839375      0.09075477742707871      0.0932040909104887       0.09506888277483004      0.0964741164332354       0.09751606016127468      0.09827683297331284      0.09882554612548239      0.09921730627699103      0.0994945455314287       0.09968935692450429      0.09982572913680014      0.09992025761161254      0.09998357853763623      0.10002591600442447      0.10005458863212577      0.10007432354143746
0.15999999999999998       10                       -2.349851198088914E-6    0.06403436821996494      0.07638009227021603      0.08312163451103831      0.08748348477879841      0.09072118704575005      0.09317833696132644      0.0950491910827928       0.09645943640838506      0.09750541290108218      0.09826929029574887      0.09882031936535703      0.09921377093232994      0.09949223005739859      0.09968791557788416      0.09982490352089961      0.09991987898672389      0.09998351084304424      0.10002604971687279      0.1000548611691683       0.10007468711482574
0.15746403117960117       10                       3.274912035429076E-7     0.06377300592937139      0.07626153305892987      0.08305417921447475      0.08743822931137328      0.0906879691608144       0.0931528408124761       0.09502966344196033      0.09644484486603026      0.09749479528319845      0.0982617329703836       0.09881504549709103      0.09921016477590171      0.0994898265474715       0.09968637368417689      0.09982396750558822      0.09991938197379703      0.09998332427836851      0.10002606592118303      0.10005501163292982      0.10007492782426437
0.1550382089111004        10                       -4.0717561444628654E-8   0.06352521312685759      0.07614935348790913      0.08299037241778277      0.08739542763501443      0.0906565388497334       0.0931286900078919       0.09501113475454048      0.09643096756357802      0.09748466446162152      0.09825448820097472      0.09880995471497304      0.0992066471428046       0.09948744324838436      0.09968480295553568      0.09982296753250897      0.09991879231092306      0.09998303282274677      0.10002597027887962      0.10005504042885024      0.10007504062791946
0.15244866317173456       10                       6.365905594399519E-9     0.0632631564494299       0.07603094866183562      0.08292304112409526      0.08735026559223091      0.09062335930566126      0.09310316569460665      0.0949915178039084       0.09641623981141624      0.09747387656605468      0.09824673627349238      0.09880446925686488      0.09920281698590365      0.09948480655890857      0.0996830211711722       0.09982178584755536      0.09991804036023134      0.09998259405348159      0.10002574449688988      0.10005494621640562      0.10007503192423474
0.151152160593261         10                       5.011912698415146E-10    0.06313293098996821      0.07597219621339334      0.08288963646033916      0.08732786037613997      0.0906068915497289       0.09309048550899517      0.09498175872769503      0.09640889907464596      0.09746848528903544      0.09824284756485381      0.09880170248941982      0.09920086959424712      0.09948344985835371      0.09968208754044033      0.0998211489888517       0.09991761550179003      0.099982321848486        0.10002557975309845      0.10005484863867677      0.10007497646107386
0.15067423812499997       10                       2.2562208530010454E-10   0.06308509378764555      0.07595062833409065      0.08287737440279558      0.08731963588293398      0.09060084536810788      0.09308582793886741      0.09497817179602565      0.09640619862268053      0.09746649955464369      0.09824141276577072      0.0988006791010773       0.0992001466638658       0.09948294351869487      0.09968173632524037      0.09982090656628052      0.09991745074120402      0.09998221282765567      0.10002550995444981      0.10005480392362098      0.10007494728307587
0.1504993375              10                       1.6879617810620022E-10   0.06306760990898416      0.07594274746050565      0.08287289395056383      0.08731663070791748      0.09059863597252228      0.09308412569745071      0.09497686053596491      0.09640521110743035      0.09746577307117442      0.09824088750479865      0.09880030410809432      0.09919988141304918      0.0994827573764638       0.09968160684139024      0.09982081681621234      0.09991738934990563      0.09998217177138581      0.10002548319056216      0.10005478640127922      0.10007493543901633
0.15034724999999996       10                       1.3094443388484744E-10   0.06305241641969488      0.07593589980855606      0.08286900094260384      0.08731401954532098      0.09059671618263629      0.09308264646548967      0.09497572092608132      0.09640435272200898      0.09746514144035433      0.09824043067653977      0.09879997782035728      0.09919965046025321      0.09948259514627635      0.09968149383116862      0.09982073832257224      0.09991733548946845      0.0999821355672943       0.10002545939052133      0.10005477067031254      0.10007492463626189
0.150215                  10                       1.0479021264960424E-10   0.06303921217501822      0.0759299493254509       0.0828656180161439       0.08731175050670874      0.0905950478765792       0.09308136091619591      0.09497473042680073      0.09640360654433013      0.09746459226696359      0.09824003337412189      0.09879969393514872      0.09919944940462365      0.09948245379840573      0.09968139524682273      0.09982066972654266      0.09991728829356139      0.09998210370510303      0.10002543829677686      0.10005475661350575      0.10007491485998643
0.15009999999999996       10                       8.612816898902724E-11    0.0630277358907389       0.07592477801661182      0.08286267807919681      0.08730977859244293      0.09059359798958286      0.09308024360623668      0.09497386947522242      0.09640295787887733      0.0974641147782692       0.09823968784786578      0.09879944695972259      0.09919927440169168      0.0994823306766661       0.09968130928319481      0.09982060981998037      0.09991724698067378      0.09998207571119555      0.10002541965370523      0.10005474409800849      0.1000749060674715
0.2695000000000001        10                       0.09999999999999923      0.0886610758528184       0.0887195581078431       0.09051088942499025      0.09267194449604238      0.09460712903198591      0.09614906871657193      0.09729385518358492      0.09811495183976733      0.09869720370293039      0.09910885082872997      0.09939894223185507      0.0996021834606437       0.09974352501987886      0.09984112020164117      0.09990815899335838      0.09995398766157894      0.09998438597075358      0.10000436226431968      0.10001770515534755      0.10002678666183151
0.26999999999999996       10                       0.09999999999999987      0.08876377724024358      0.08877834901460314      0.09054887664791204      0.09270022923038905      0.09462879781849666      0.0961655736366356       0.09730618433770442      0.09812397146214748      0.09870368379203995      0.09911343091239015      0.09940212432450565      0.09960434911787779      0.09974495921110112      0.09984203279598744      0.09990870198468695      0.09995427052328419      0.09998449151566581      0.10000434937299474      0.10001760987254842      0.10002663439772534
0.268925                  10                       0.09999999999999597      0.08854263405642356      0.08865187241904343      0.09046720384545881      0.09263944174411344      0.09458223468954234      0.09613010523919154      0.09727968711611713      0.09810458566215942      0.09868975578870585      0.09910358667210738      0.09939528497498643      0.09959969457258278      0.0997418769599812       0.09984007174696254      0.09990753544304073      0.09995366317540157      0.09998426533319611      0.10000437765489198      0.10001781535580907      0.10002696244628326
0.26826374999999997       10                       0.09999999999997196      0.08840598471742134      0.08857393448408342      0.0904169656201634       0.09260209654561498      0.09455363919629634      0.0961083201828617       0.09726340785295601      0.09809267314626155      0.09868119633129047      0.09909753685745176      0.09939108203010143      0.09959683453328895      0.09973998338881297      0.0998388674079465       0.09990681955433238      0.09995329109402461      0.09998412758770764      0.10000439612128438      0.10001794292341833      0.10002716550214243
0.26750331250000003       10                       0.0999999999996923       0.08824825752774167      0.08848417641523437      0.09035919275650756      0.09255919363744698      0.09452079840558866      0.09608329804527067      0.0972447055098662       0.09807898532397129      0.09867136057904508      0.09909058493336094      0.0993862525669947       0.09959354843842642      0.09973780807492232      0.09983748428364295      0.09990599788827417      0.09995286464616028      0.09998397050226421      0.10000441840635121      0.10001809075017133      0.10002740021592955
0.266628809375            10                       0.09999999999301314      0.08806610846265013      0.08838078651220432      0.09029275669592625      0.09250991429483821      0.09448309030222217      0.09605456366634814      0.09722322310918607      0.09806325995457632      0.09866005978925238      0.09908259749309457      0.099380704006525        0.09958977342954774      0.09973530956903405      0.09983589621182443      0.09990505513684687      0.09995237617422258      0.09998379162601302      0.10000444546985658      0.10001826226240769      0.10002767173054346
0.264239300201897         10                       0.10000000002849087      0.08756429117666077      0.08809739522443823      0.0901112528283994       0.09237559089221382      0.0943803818092577       0.09597627797105486      0.09716466606001269      0.09802037997212283      0.09862923995827096      0.09906081388052065      0.09936557334959195      0.09957948131220798      0.09972850026003044      0.09983157122262377      0.09990249135981899      0.09995105238138366      0.09998331275937805      0.10000452757724625      0.10001873934065954      0.10002842240813827
0.2577580948136931        10                       0.09999999991914509      0.08617385007210852      0.08732275041612292      0.0896193766966297       0.09201379956013744      0.09410429624307994      0.0957657066771597       0.09700695175363651      0.09790477763427051      0.09854611737954928      0.09900206342488736      0.09932477870370107      0.09955174921927347      0.09971017277949183      0.09981995425469536      0.09989563418205995      0.09994754756981986      0.09998209098072831      0.10000481778985333      0.10002009944504797      0.10003052468282271
0.24481023612490696       10                       0.10000000023570095      0.08327801502192644      0.08575455170238987      0.08864090745062642      0.09130335649012172      0.09356458246345616      0.0953535720889142       0.09669742136782786      0.09767743988769616      0.09838252392552933      0.0988864563417966       0.09924457463413622      0.09949731534188054      0.09967430081872874      0.09979733549186966      0.09988242585880021      0.09994097162946323      0.0999800273536078       0.10000575729899665      0.10002314329777402      0.10003503113852415