% Model:              inside_out_countercurrent_10mins.mph
% Version:            COMSOL 6.3.0.420
% Date:               Apr 23 2026, 15:42
% Dimension:          2
% Nodes:              671
% Expressions:        2
% Description:        Molar concentration, is
% Length unit:        mm
% R                       Z                        is (mol/m^3) @ t=0       is (mol/m^3) @ t=1
0.1498125                 0.5                      0.1                      0.09590142829381045
0.15                      0.5                      0.1                      0.0958340668865109
0.14925                   0.5                      0.10000000000000002      0.09609775857277902
0.149034375               0.5                      0.10000000000000002      0.09617490192833657
0.1483875                 0.5                      0.10000000000000002      0.0964008921899883
0.14813953125             0.5                      0.10000000000000002      0.0964882633311774
0.147395625               0.5                      0.10000000000000002      0.09674678603008718
0.14711046093750002       0.5                      0.10000000000000002      0.09684434286483545
0.14625496875             0.5                      0.10000000000000002      0.09713710588154532
0.14592703007812502       0.5                      0.10000000000000002      0.09724402402007228
0.1449432140625           0.5                      0.10000000000000002      0.09757037011447398
0.14253857952642834       0.5                      0.10000000000000002      0.09830120205315489
0.1430042586013329        0.5                      0.10000000000000002      0.0981613851015775
0.13791712276193333       0.5                      0.10000000000000002      0.09936107268594296
0.13895213650193416       0.5                      0.10000000000000002      0.09911226575834187
0.1286860392929826        0.5                      0.10000000000000002      0.0999637436359341
0.13083223678385963       0.5                      0.10000000000000002      0.09982624251665484
0.11466373540221324       0.5                      0.10000000000000002      0.09999743479914819
0.12474228812013187       0.5                      0.10000000000000002      0.09997396749090556
0.10937832754732986       0.5                      0.10000000000000002      0.09999713026477108
0.09351821693290202       0.5                      0.10000000000000002      0.10000024275486513
0.086678139231008         0.5                      0.10000000000000002      0.10000031568168302
0.06609549156245441       0.5                      0.10000000000000002      0.0999999353945214
0.06082581508223937       0.5                      0.10000000000000002      0.09999991795900744
0.045                     0.5                      0.10000000000000002      0.10000001587160896
0.041249999999999884      0.5                      0.10000000000000002      0.10000002081713837
0.03                      0.5                      0.10000000000000002      0.09999999541576304
0.026249999999999888      0.5                      0.10000000000000002      0.09999999394293049
0.015                     0.5                      0.10000000000000002      0.10000000157678604
0.011249999999999882      0.5                      0.10000000000000002      0.10000000243451279
0                         0.5                      0.09999999999999999      0.09999999853137688
0.249875                  0.5                      0.04386984711294073      0.03700504398639744
0.25                      0.5                      0.035639138758270524     0.03694907037824379
0.2495                    0.5                      0.06855629191156465      0.037172872430689466
0.24935625                0.5                      0.07388741145387384      0.03723741744548734
0.24892499999999995       0.5                      0.08987918573098401      0.03743092466222426
0.2487596875              0.5                      0.09188463122998825      0.03750538403511924
0.24826375                0.5                      0.09790062750274575      0.03772858713902195
0.248073640625            0.5                      0.09836053300987713      0.03781452409370889
0.24750331250000004       0.5                      0.09974019663522235      0.038072097448202294
0.24728468671875004       0.5                      0.09980161387567656      0.038171334795921164
0.246628809375            0.5                      0.09998583544621083      0.03846872696638964
0.24559772510424874       0.5                      0.10000016977929901      0.03893862350229281
0.24636845228496684       0.5                      0.09998941855859358      0.0385873933192867
0.24302535122856742       0.5                      0.09999997837049597      0.04012129066335925
0.24494339462983714       0.5                      0.10000011476073872      0.03923986565554523
0.24148392893064213       0.5                      0.09999998591425299      0.04084687441233814
0.23685384090253536       0.5                      0.10000000376921475      0.043020793269274216
0.22413917333366692       0.5                      0.099999999232719        0.049284163733593504
0.23367152335785127       0.5                      0.10000000247337078      0.044592755379927435
0.2184737405835066        0.5                      0.09999999951292668      0.05235156468791689
0.20143181206658484       0.5                      0.10000000021649227      0.061537101303550445
0.17697594063260486       0.5                      0.0999999999222074       0.07653538015353163
0.1950181423016894        0.5                      0.10000000013412036      0.06549696256991264
0.17381032563694965       0.5                      0.09999999995288544      0.0787215915974799
0.1642093072385346        0.5                      0.10000000002772601      0.08526211083944946
0.16277850889118473       0.5                      0.10000000001670561      0.08630813574783175
0.1580552515324691        0.5                      0.0999999999904375       0.08972190778337233
0.15736524239142083       0.5                      0.09999999999392173      0.09024014922699006
0.15497428062385116       0.5                      0.1000000000025963       0.09202159532576307
0.15466382790839445       0.5                      0.1000000000018513       0.09225775913921794
0.153371190625            0.5                      0.09999999999964884      0.0932365133359157
0.15315256484375          0.5                      0.09999999999966969      0.09340397964560693
0.15249668749999998       0.5                      0.09999999999997913      0.09390476513807049
0.15230657812499998       0.5                      0.09999999999998087      0.09405116925409007
0.15173625                0.5                      0.099999999999998        0.09448900106549546
0.1515709375              0.5                      0.09999999999999815      0.09461690502998799
0.151075                  0.5                      0.09999999999999973      0.09499943419007681
0.15093125                0.5                      0.09999999999999974      0.09511110925903639
0.1505                    0.5                      0.09999999999999995      0.0954451199234179
0.150375                  0.5                      0.09999999999999995      0.095542574498844
0.269975                  0.5                      9.634396707965528E-14    0.03311541729743585
0.27                      0.5                      8.928978583656482E-14    0.03311088014940738
0.26990000000000003       0.5                      1.0549420330828256E-13   0.03312918912750042
0.26987125                0.5                      1.151936818413005E-13    0.033134409794326664
0.26978500000000005       0.5                      1.2772851299746465E-13   0.03315025494365009
0.26975193750000004       0.5                      1.4142438973734E-13      0.0331562626086603
0.26965275000000005       0.5                      1.590728061523959E-13    0.03317449451739004
0.26961472812500004       0.5                      1.7901333181120235E-13   0.03318140848944433
0.26950066250000004       0.5                      2.0465493595078087E-13   0.03320238840610998
0.2694569373437501        0.5                      2.347318081063451E-13    0.033210346297521065
0.2693257618750001        0.5                      2.7335466692634454E-13   0.03323449070829472
0.2692754779453126        0.5                      3.206093320534829E-13    0.03324365131220992
0.26912462615625005       0.5                      3.812436594485028E-13    0.03327144056904967
0.26906679963710944       0.5                      4.590679274080629E-13    0.0332819872112747
0.2688933200796876        0.5                      5.588960626388243E-13    0.03331397556671017
0.26882681958267585       0.5                      6.942362837052245E-13    0.03332612001712577
0.26862731809164064       0.5                      8.678476388329235E-13    0.033362947313970125
0.26855084252007716       0.5                      1.1185078369586733E-12   0.033376934360076424
0.2683214158053867        0.5                      1.4401397204956892E-12   0.033419339674102364
0.26823346889808874       0.5                      1.9395077559280525E-12   0.033435452480751235
0.2679696281761948        0.5                      2.580574155655195E-12    0.03348429007602012
0.2678684892328021        0.5                      3.663303449430071E-12    0.03350285648223068
0.267565072402624         0.5                      5.0541922955561495E-12   0.033559114515449205
0.26744876261772244       0.5                      7.644759920383543E-12    0.03358051445285694
0.26709983326301756       0.5                      1.0975605049495958E-11   0.03364533695934558
0.2669660770103807        0.5                      1.7928956949583117E-11   0.03367001121934099
0.2665648082524702        0.5                      2.6880042792367628E-11   0.033744724034724574
0.26641098856193784       0.5                      4.823218421070743E-11    0.033773184665390976
0.26594952949034073       0.5                      7.576533112490816E-11    0.033859326091822003
0.26577263684622854       0.5                      1.525341538357089E-10    0.03389216877485861
0.26524195891389185       0.5                      2.517767686042873E-10    0.033991525999416974
0.2644309680814307        0.5                      1.0083917758563807E-9    0.03414358696452359
0.2650389542783129        0.5                      5.817284008397456E-10    0.03402936555614416
0.2634237312969451        0.5                      5.771919886793619E-9     0.03433324936923415
0.2641786496698479        0.5                      3.0833057117385495E-9    0.034190841206994796
0.2631145520218541        0.5                      6.268583789631798E-9     0.03439149245933941
0.26218623789724793       0.5                      1.9830237186330346E-8    0.03456749974279584
0.26170187371387854       0.5                      -1.9829964364738E-7      0.03465949002712866
0.2602472172636418        0.5                      -5.828555688175411E-7    0.0349372954403876
0.2570396570549271        0.5                      3.192657118767444E-6     0.035556496104899714
0.25783991521513006       0.5                      1.7397862820468545E-6    0.035402471038615595
0.2544274455456067        0.5                      -2.617205948855766E-5    0.03606779791750314
0.25633232452579613       0.5                      -7.378281590539687E-6    0.03569478393942039
0.25267942986034797       0.5                      7.561427195390428E-4     0.03641350998780295
0.2539844932928161        0.5                      2.654662703623593E-4     0.036155428471918015
0.25240230925564244       0.5                      0.0022523360941440244    0.036468747051181645
0.25150501504940825       0.5                      0.005651747366846118     0.03664739633488677
0.25138760070550387       0.5                      0.0072616342828227785    0.03667088994650681
0.25096858283225154       0.5                      0.011931094430015398     0.0367546735886644
0.25092059703138536       0.5                      0.012859672155599525     0.0367642809132033
0.25067423812499995       0.5                      0.017288461851713503     0.03681365034600702
0.25063051296874994       0.5                      0.01828391451198924      0.036822423444928275
0.2504993375              0.5                      0.02126525857331555      0.036848736773847056
0.25046131562499996       0.5                      0.022253572205002726     0.03685637199199965
0.25034724999999997       0.5                      0.025215257682158532     0.03687927071194763
0.2503141875              0.5                      0.026160607592312018     0.03688591490309039
0.25021499999999997       0.5                      0.028994484501399975     0.0369058401295806
0.25018624999999994       0.5                      0.02986944338905035      0.03691162137298884
0.2501                    0.5                      0.03249283914902101      0.03692895772047208
0.250075                  0.5                      0.033279670193991535     0.03693398767750501
1.7999235000000005        0.5                      1.1304465622365212E-181  1.5613811189555822E-11
1.8000000000000005        0.5                      1.0437010410016683E-181  1.5613774318615928E-11
1.7996940000000003        0.5                      1.1979522075875992E-181  1.5613910985173457E-11
1.7996060250000003        0.5                      1.5495069588630738E-181  1.5614044701149287E-11
1.7993421000000003        0.5                      1.8230795057006508E-181  1.561440663394375E-11
1.7992409287500004        0.5                      2.750770495568138E-181   1.561468148958854E-11
1.7989374150000004        0.5                      3.4726325106094027E-181  1.5615425485906128E-11
1.7988210680625003        0.5                      5.90607366672246E-181    1.56159021890459E-11
1.7984720272500003        0.5                      7.799410950284223E-181   1.5617192632262676E-11
1.7983382282718754        0.5                      1.4839676901555033E-180  1.561795400648809E-11
1.7979368313375004        0.5                      2.0316626729544057E-180  1.562001519327985E-11
1.796912756576705         0.5                      1.593609990401033E-179   1.562777143560627E-11
1.7971334071034974        0.5                      1.0571710103355572E-179  1.5626017999617442E-11
1.7951757145702048        0.5                      -2.2992614960973054E-178 1.5648109635058638E-11
1.7956083508519076        0.5                      -1.2912722554384723E-178 1.5642841485857418E-11
1.7927558265815513        0.5                      5.165057514102341E-178   1.569382272669368E-11
1.7919117931405384        0.5                      1.0147217911162912E-177  1.5711162248515657E-11
1.7854757643595558        0.5                      -3.273508496334139E-177  1.593340276405151E-11
1.7870812539494372        0.5                      -1.556664148086541E-177  1.587386570880633E-11
1.7768792608649304        0.5                      1.1256135452354595E-176  1.644368135212115E-11
1.779026854858471         0.5                      5.421539736366558E-177   1.630672103946352E-11
1.7685319003968705        0.5                      -1.8527135470132873E-176 1.7214515883452104E-11
1.7657362342633818        0.5                      -3.854784660437477E-176  1.749930516440308E-11
1.7571600000000003        0.5                      1.6977686708625794E-175  1.86458370539895E-11
1.763588096395425         0.5                      4.5190201778042126E-176  1.780832384648569E-11
1.7556300000000002        0.5                      -2.2944236627076197E-175 1.89185980216831E-11
1.7510400000000002        0.5                      -8.237691236072349E-175  1.9659757636700455E-11
1.7495100000000001        0.5                      8.77507017355069E-175    1.998021048908809E-11
1.7449200000000002        0.5                      3.4088992878882277E-174  2.0851224715027975E-11
1.74339                   0.5                      -3.5861404451484737E-174 2.122336593889603E-11
1.7388000000000001        0.5                      -1.39850671860293E-173   2.2235145556946782E-11
1.73727                   0.5                      1.4717063261992354E-173  2.266355452612928E-11
1.7326800000000002        0.5                      5.734483116164634E-173   2.382859670056869E-11
1.7311500000000002        0.5                      -6.0416135294114135E-173 2.4318512779977267E-11
1.72656                   0.5                      -2.3513291764395258E-172 2.5651113005900036E-11
1.7250299999999998        0.5                      2.480400702574012E-172   2.620852165066032E-11
1.72044                   0.5                      9.641279031163542E-172   2.7725010355664298E-11
1.71891                   0.5                      -1.0184071792080629E-171 2.8356739660899432E-11
1.71432                   0.5                      -3.9532910323317714E-171 3.007574749512205E-11
1.71279                   0.5                      4.181681614108788E-171   3.078957682763847E-11
1.7082000000000002        0.5                      1.621011098486889E-170   3.273233316325089E-11
1.7066700000000001        0.5                      -1.7171566284510236E-170 3.3537115707055004E-11
1.7020800000000003        0.5                      -6.646857452106566E-170  3.5727785430256584E-11
1.7005500000000002        0.5                      7.051765129420366E-170   3.6633586708267334E-11
1.6959600000000008        0.5                      2.725524100988998E-169   3.909965103172448E-11
1.6944300000000005        0.5                      -2.896104897588052E-169  4.011790573024258E-11
1.6898400000000007        0.5                      -1.1176017787267847E-168 4.289059349378559E-11
1.6883100000000004        0.5                      1.1894845123674206E-168  4.403428321889281E-11
1.6837200000000005        0.5                      4.582765663877157E-168   4.71490599942495E-11
1.6821900000000005        0.5                      -4.88574592187005E-168   4.84329149355845E-11
1.6776000000000004        0.5                      -1.879194962852549E-167  5.193003822182931E-11
1.6760700000000002        0.5                      2.0069200449628565E-167  5.337076609507833E-11
1.6714800000000003        0.5                      7.705836103359659E-167   5.7295916002119915E-11
1.6699500000000003        0.5                      -8.2443398783435E-167    5.891246209375417E-11
1.6653600000000004        0.5                      -3.159886999312277E-166  6.331745818058269E-11
1.6638300000000004        0.5                      3.386942649110409E-166   6.513130083453635E-11
1.6592400000000007        0.5                      1.2957681826979244E-165  7.007491721864989E-11
1.6577100000000007        0.5                      -1.3915071638858746E-165 7.21104036933363E-11
1.6531200000000004        0.5                      -5.313579305786994E-165  7.765929620219213E-11
1.6515900000000001        0.5                      5.717263454491616E-165   7.994402449733329E-11
1.6470000000000005        0.5                      2.178969940049754E-164   8.617378551944247E-11
1.6454700000000004        0.5                      -2.3491763609016587E-164 8.873903853666983E-11
1.6408800000000003        0.5                      -8.93551628842074E-164   9.573539738059771E-11
1.6393500000000003        0.5                      9.653108717712078E-164   9.861663665222522E-11
1.6347600000000004        0.5                      3.664312686640845E-163   1.0647682567162156E-10
1.6332300000000002        0.5                      -3.9668194087146697E-163 1.0971425288261598E-10
1.6286400000000003        0.5                      -1.5026920542598735E-162 1.185485624149164E-10
1.6271100000000003        0.5                      1.6301997192017384E-162  1.2218775806990093E-10
1.62252                   0.5                      6.162432397385448E-162   1.3212130641103537E-10
1.62099                   0.5                      -6.699800103607224E-162  1.362139562793567E-10
1.6164                    0.5                      -2.5271975218873454E-161 1.4738870452830255E-10
1.61487                   0.5                      2.753626394879943E-161   1.5199342595624895E-10
1.6102800000000002        0.5                      1.0364089971690419E-160  1.6457047166994963E-10
1.6087500000000001        0.5                      -1.1318003345669865E-160 1.6975375350327126E-10
1.60416                   0.5                      -4.2503848862599407E-160 1.839159417702459E-10
1.60263                   0.5                      4.6521717795503327E-160  1.8975321350832614E-10
1.5980400000000001        0.5                      1.7431331747305168E-159  2.0570810935286537E-10
1.5965099999999999        0.5                      -1.9123275436585133E-159 2.1228495728763066E-10
1.5919200000000004        0.5                      -7.148883718388605E-159  2.3026822933988456E-10
1.5903900000000002        0.5                      7.861201389651768E-159   2.376817798509569E-10
1.5858000000000003        0.5                      2.931915049034432E-158   2.5796105205644047E-10
1.5842700000000003        0.5                      -3.2317306672264554E-158 2.6632154497646136E-10
1.5796800000000004        0.5                      -1.2024586409523957E-157 2.892007808786459E-10
1.5781500000000004        0.5                      1.3286190763038074E-157  2.986333589510167E-10
1.5735600000000003        0.5                      4.931677382382895E-157   3.2445785188319477E-10
1.57203                   0.5                      -5.462411174259275E-157  3.3510459585585716E-10
1.56744                   0.5                      -2.0226700607844242E-156 3.642666483592159E-10
1.56591                   0.5                      2.2458790593953058E-156  3.7628889124539906E-10
1.5613200000000003        0.5                      8.295860525846716E-156   4.092342783417431E-10
1.55979                   0.5                      -9.234341111521037E-156  4.228152368911794E-10
1.5552000000000001        0.5                      -3.402545776644851E-155  4.60050560652536E-10
1.5536699999999999        0.5                      3.7970168743651395E-155  4.753983271809627E-10
1.5490800000000005        0.5                      1.3955737180673327E-154  5.174993845467761E-10
1.5475500000000002        0.5                      -1.5613336060605395E-154 5.348503280421459E-10
1.5429600000000003        0.5                      -5.724110237067141E-154  5.824716302540209E-10
1.54143                   0.5                      6.420442428045081E-154   6.020942621978533E-10
1.5368399999999998        0.5                      2.3478466556921831E-153  6.55979862793139E-10
1.53531                   0.5                      -2.640278730475881E-153  6.781792304982066E-10
1.5307200000000003        0.5                      -9.630262642013198E-153  7.391750397983601E-10
1.5291900000000003        0.5                      1.0857996024654567E-152  7.642977183731852E-10
1.5246000000000004        0.5                      3.950147646749256E-152   8.333655061227762E-10
1.5230700000000004        0.5                      -4.465439092591146E-152  8.618052695451939E-10
1.5184800000000003        0.5                      -1.620300068216184E-151  9.400385841403575E-10
1.5169500000000002        0.5                      1.8365077540612663E-151  9.72242846486117E-10
1.5123600000000004        0.5                      6.646371704336601E-151   1.0608851094545083E-9
1.5108300000000003        0.5                      -7.553269571056719E-151  1.0973622392260192E-9
1.5062400000000005        0.5                      -2.726346086827533E-150  1.197827307702496E-9
1.5047100000000002        0.5                      3.1066358262945077E-150  1.2391549315976208E-9
1.5001200000000003        0.5                      1.1183678051529433E-149  1.353050459948772E-9
1.4985900000000003        0.5                      -1.2777867390511794E-149 1.3998848874774186E-9
1.4940000000000002        0.5                      -4.587708001102237E-149  1.529038862481972E-9
1.4924700000000002        0.5                      5.2557972749812944E-149  1.5821257797760289E-9
1.4878800000000005        0.5                      1.881977589480312E-148   1.728616652442874E-9
1.4863500000000003        0.5                      -2.161874935910948E-148  1.7888032526310904E-9
1.4817600000000002        0.5                      -7.720418121602876E-148  1.954994144470855E-9
1.4802300000000002        0.5                      8.892703218586766E-148   2.0232428833453725E-9
1.4756400000000003        0.5                      3.1671965492081966E-147  2.211820406410682E-9
1.47411                   0.5                      -3.6580349048156464E-147 2.2892245960629978E-9
1.4695200000000002        0.5                      -1.299323085589203E-146  2.503242895118898E-9
1.46799                   0.5                      1.504777381552779E-146   2.591044375063099E-9
1.4634000000000005        0.5                      5.330492824658771E-146   2.83397507770262E-9
1.4618700000000002        0.5                      -6.190227077366537E-146  2.9335842330543654E-9
1.4572800000000004        0.5                      -2.1868840813593998E-145 3.2093730803841395E-9
1.45575                   0.5                      2.5465392940820818E-145  3.32239151029056E-9
1.4511599999999998        0.5                      8.9720663629458E-145     3.6355225380379595E-9
1.44963                   0.5                      -1.0476186536606999E-144 3.763768715125704E-9
1.44504                   0.5                      -3.681015324697676E-144  4.119336963772561E-9
1.44351                   0.5                      4.3098749870883227E-144  4.264875267339691E-9
1.43892                   0.5                      1.5102586348453794E-143  4.668669121460761E-9
1.43739                   0.5                      -1.7731044042613308E-143 4.83384267396303E-9
1.4328                    0.5                      -6.19646072376652E-143   5.292437066743519E-9
1.4312699999999998        0.5                      7.294771799310166E-143   5.4799048552871776E-9
1.42668                   0.5                      2.542405759122817E-142   6.000766725634605E-9
1.42515                   0.5                      -3.0012105633597892E-142 6.2135455482727E-9
1.4205600000000005        0.5                      -1.0431696181450599E-141 6.805153106737075E-9
1.4190300000000002        0.5                      1.2347759715622459E-141  7.0466649479719625E-9
1.41444                   0.5                      4.2802980771685194E-141  7.718642495638182E-9
1.4129099999999997        0.5                      -5.0802656216612666E-141 7.992768007294265E-9
1.4083199999999998        0.5                      -1.756314263471016E-140  8.756038260802647E-9
1.4067899999999998        0.5                      2.0902143420334602E-140  9.067177104073019E-9
1.4022                    0.5                      7.2067537650719735E-140  9.934133212102477E-9
1.4006699999999999        0.5                      -8.600050314372481E-140  1.0287272104843105E-8
1.39608                   0.5                      -2.9572394367188667E-139 1.127197179901555E-8
1.39455                   0.5                      3.538478368631428E-139   1.1672761210083247E-8
1.38996                   0.5                      1.213508303521665E-138   1.2791145818778226E-8
1.3884299999999998        0.5                      -1.455918644169753E-138  1.3245986359259423E-8
1.38384                   0.5                      -4.979761911256006E-138  1.4516127728892332E-8
1.38231                   0.5                      5.990489505116018E-138   1.5032267409391737E-8
1.3777199999999998        0.5                      2.043544377862438E-137   1.647464612714527E-8
1.3761899999999998        0.5                      -2.464857383288916E-137  1.7060289781895407E-8
1.3716                    0.5                      -8.386279592406295E-137  1.8698108479715496E-8
1.3700699999999997        0.5                      1.0142037364948162E-136  1.936254080320112E-8
1.3654799999999998        0.5                      3.4416323204532276E-136  2.1222076748306017E-8
1.3639499999999998        0.5                      -4.1731326960606304E-136 2.197580054949799E-8
1.35936                   0.5                      -1.4124385889073618E-135 2.408680219511117E-8
1.3578299999999999        0.5                      1.7171270117871584E-135  2.4941693649466096E-8
1.3532400000000002        0.5                      5.796752289873607E-135   2.733782633460171E-8
1.3517100000000002        0.5                      -7.065543086183693E-135  2.8307309205962565E-8
1.3471199999999999        0.5                      -2.3790856086723864E-134 3.102665575867109E-8
1.3455899999999998        0.5                      2.907309414909704E-134   3.212589677340892E-8
1.341                     0.5                      9.76440197428601E-134    3.5211519391931125E-8
1.33947                   0.5                      -1.1962975602472252E-133 3.645764717746764E-8
1.3348799999999998        0.5                      -4.007666484094684E-133  3.9958217642446366E-8
1.3333499999999998        0.5                      4.922538520503018E-133   4.1370567893089634E-8
1.32876                   0.5                      1.6449319139630554E-132  4.5341073905670956E-8
1.32723                   0.5                      -2.0255392720912547E-132 4.694146371196979E-8
1.3226399999999998        0.5                      -6.751725826548218E-132  5.144399996177097E-8
1.3211099999999998        0.5                      8.334768701796708E-132   5.325703453687881E-8
1.3165200000000001        0.5                      2.771355706765945E-131   5.836168798505834E-8
1.3149899999999999        0.5                      -3.4296317015421105E-131 6.041510334430512E-8