% Model:              outside_in_originalconfiguration_countercurrent_10mins.mph
% Version:            COMSOL 6.3.0.420
% Date:               May 14 2026, 16:22
% Dimension:          2
% Nodes:              241
% Expressions:        21
% Description:        Molar concentration, is
% Length unit:        mm
% r                       z                        is (mol/m^3) @ t=0       is (mol/m^3) @ t=0.5     is (mol/m^3) @ t=1       is (mol/m^3) @ t=1.5     is (mol/m^3) @ t=2       is (mol/m^3) @ t=2.5     is (mol/m^3) @ t=3       is (mol/m^3) @ t=3.5     is (mol/m^3) @ t=4       is (mol/m^3) @ t=4.5     is (mol/m^3) @ t=5       is (mol/m^3) @ t=5.5     is (mol/m^3) @ t=6       is (mol/m^3) @ t=6.5     is (mol/m^3) @ t=7       is (mol/m^3) @ t=7.5     is (mol/m^3) @ t=8       is (mol/m^3) @ t=8.5     is (mol/m^3) @ t=9       is (mol/m^3) @ t=9.5     is (mol/m^3) @ t=10
0.149625                  5                        4.51439774148043E-11     0.014959633738753635     0.012776438138821983     0.011968835298978641     0.011649087422141872     0.011486692473985597     0.011388317878995764     0.01138033392186069      0.011411266636028016     0.011360497754848238     0.011315244357494203     0.011395464833030559     0.01139191718646684      0.011341209868123845     0.01136041009595223      0.011399893928845807     0.011382549618185227     0.011344971561166567     0.011374279063822372     0.011395953174929325     0.011361682325425587
0.15                      5                        7.154927709725154E-11    0.015120326168858163     0.012913615644212836     0.012099601251583884     0.011778052716461842     0.011615102620155532     0.011516559731288699     0.011508400382575747     0.011539212591680162     0.01148868865398648      0.01144353640634894      0.01152336995579539      0.01151998052505289      0.01146945958787228      0.011488500813871351     0.011527866403850614     0.0115106449896699       0.011473200555983176     0.011502339262626976     0.011523945166729587     0.011489855990328061
0.14924999999999997       5                        1.8731300080706378E-11   0.014798787775092458     0.012639309510388587     0.011838467711754251     0.011520728323254969     0.01135897692351831      0.011260822981112332     0.011253036990730894     0.011284054970443522     0.011233023262804072     0.011187739356170201     0.011268310218258755     0.011264578786411695     0.011213714170981765     0.011233094807125608     0.011272658693368538     0.011255156755145879     0.011217516797504407     0.011247010188588456     0.011268657257073204     0.011234240149933794
0.14881875                5                        1.1266315817882885E-11   0.014613072577254254     0.012480830829904924     0.011687422387088333     0.011371781779403276     0.011210681110571209     0.011112721364969463     0.011105133918221521     0.011136298356120147     0.011084992552790805     0.011039574971886935     0.011120595357753876     0.011116687407373392     0.011065603747302434     0.011085161677160515     0.0111248682648715       0.01110723862676381      0.011069430387094757     0.011099104742366667     0.011120853915534957     0.011086229805459098
0.1483875                 5                        3.799087168806452E-12    0.014427182348307283     0.012322411760281888     0.01153683530650471      0.011223533571530057     0.011063185985854077     0.010965480515096666     0.010958118471404717     0.010989391124458162     0.010937785779134266     0.010892315280401533     0.010973750477612801     0.010969634792873134     0.010918362414283615     0.01093812247262576      0.010977930937490546     0.010960130533201964     0.010922234622938419     0.010952115460992277     0.010973853996256895     0.010939057457442255
0.14789156250000005       5                        2.174999291667153E-12    0.014212624563291247     0.012139401491512557     0.011362476411986174     0.011051637801553924     0.010892063818625407     0.010794579561288905     0.010787432165767127     0.010818893558955895     0.01076700094749181      0.010721327975758666     0.010803283103777081     0.010798986869584578     0.01074745244590839      0.010767395278303386     0.010807385426833639     0.010789480429533427     0.010751351813475309     0.010781398795198979     0.010803321281369092     0.010768296759734102
0.14739562499999997       5                        5.503784069063947E-13    0.013997868588312413     0.01195646756606902      0.011188642055347964     0.010880544093181701     0.01072186237315034      0.010624667252191947     0.010617767647833572     0.01064938112942252      0.010597158327171383     0.01055137267606441      0.010633829834794401     0.010629312254175273     0.010577540996099278     0.010597695594197794     0.01063783023843912      0.010619762779592224     0.010581486933612747     0.01061174611744949      0.01063371627487084      0.010598484600545417
0.146825296875            5                        2.9972702469768667E-13   0.01375017507383148      0.011745300992577916     0.010987592329492035     0.010682408740393019     0.010524662606653844     0.01042771392568008      0.010421028307953684     0.010452901023917958     0.010400412666436765     0.010354289571844484     0.010437343793610606     0.01043267208361218      0.010380579950466146     0.0104008955713469       0.010441275894956319     0.010423181443405923     0.010384555296089403     0.010414912096332298     0.010437236659900446     0.010401767597659088
0.14625496875             5                        4.898440324393573E-14    0.01350225988209541      0.011534239042977557     0.010787140184242029     0.010485191978991963     0.010328519169075902     0.01023189193133858      0.010225462998395319     0.010257569129936717     0.01020473659138696      0.01015837159884075      0.010242050643254773     0.010237167247039703     0.010184761937872825     0.01020527277995003      0.01024587759819696      0.010227672202678392     0.01018877711740938      0.010219320351053798     0.010241830246171296     0.010206106048957947
0.14559909140625          5                        2.5158312555049937E-14   0.013216689121237805     0.011290918389696505     0.01055571668040519      0.010257248196148198     0.010101729143619613     0.010005365911338264     0.009999116534753192     0.010031599964900346     0.00997859183483497      0.009931637989809554     0.010015993750297589     0.010011041494935518     0.009958232311533486     0.00997883044881495      0.010019787034867786     0.010001731840476705     0.009962276956756378     0.00999274956266261      0.0100159416213246       0.009979995623005883
0.1449432140625           5                        1.3222529215261798E-15   0.012930875946721779     0.011047752805131468     0.010324971987251241     0.010030354891809506     0.009876149630719953     0.009780130088123205     0.009774117718650504     0.009806980577877001     0.009753650341324006     0.009706201928027921     0.009791360443426858     0.00978625185684854      0.009733006438461944     0.009753732815667446     0.009795058392163455     0.009777024826506739     0.00973706962553539      0.009767641788815229     0.009791300472136825     0.009755031312865996
0.14135838494141006       5                        -1.582218384782923E-16   0.011371866044162442     0.00972187417910985      0.009068639628896369     0.008795701385899066     0.008649355875601762     0.008554529080285289     0.00854853146540775      0.00858502013278515      0.008532202630960651     0.008478251033087109     0.008567880523807518     0.008563911260177439     0.008507507565323029     0.008527126237965659     0.008571888130052763     0.00855719984740688      0.008511437309842693     0.008539433701787242     0.008570785008851764     0.008533321013154484
0.14315079733097394       5                        5.819888436564321E-16    0.012151092223189788     0.010385189537574394     0.009697718801717072     0.00941445766913922      0.009264404761312343     0.009169060560833098     0.009163164763246254     0.009197978705508567     0.009144467624120672     0.009093830673454407     0.00918180626105543      0.009177045739467628     0.009122001270914202     0.009142236407253302     0.009185473830544605     0.009168815895218103     0.009125888192499942     0.009155680728408416     0.009182821919810971     0.009145473610858096
0.1316287609576923        5                        2.9876255925983944E-17   0.00734382931319242      0.006293912471761691     0.005860065876443782     0.005655746131689947     0.005541114605272299     0.005442045073918723     0.0054182506841937705    0.005478420577027225     0.005469076001164935     0.005350318156132663     0.005430685067774908     0.00546402096409331      0.005398106690477437     0.005389272922029601     0.005455815842784341     0.005492372445424577     0.005401153022716623     0.005371785615577206     0.005488374212901071     0.005469663782718118
0.13649353804259037       5                        -6.42401839417479E-17    0.009357985053942988     0.008010428636239415     0.007467020592773809     0.007230003080209878     0.007100120543694639     0.007003084425251148     0.006988381513293544     0.0070393149723057685    0.007003551091248771     0.006916693447064583     0.007009695288558696     0.0070210864642519955    0.006956950659904428     0.006962410383263699     0.007020146268115184     0.007032729985889554     0.006959754259270838     0.006961227562735118     0.007037349791050871     0.00700519119076399
0.11220888919846331       5                        -8.841182823643205E-18   0.0018481655621046306    0.0016433524922839261    0.0015932384342100191    0.0014899844197344735    0.0014700789670121066    0.0013753171037076777    0.0011701095221273395    9.954830070872658E-4     0.0013013510472663168    0.0013662365079752732    0.001077094924150393     0.001186944318963113     0.0013852739474089783    0.0012832612391513627    0.0010718240063152065    0.001074744092575292     0.0013414156114392173    0.0012222341274617952    0.0010191707540306264    0.0011812408322131973
0.1219188425375604        5                        1.0532017521938242E-17   0.004609407438562221     0.003975972959123425     0.0037392470244339473    0.003585645148239286     0.0035189760964418637    0.0034203197571025332    0.0033031459376606587    0.003251662218394396     0.0034174064024448734    0.0033697804494769892    0.0032541507187506128    0.0033376680201694267    0.0034033561625480867    0.0033441751731603008    0.0032763574091528667    0.0033085753576308522    0.003384948626726983     0.0032993774138100392    0.00327559800185582      0.003358285916697448
0.09401750834067399       5                        2.5260752716493216E-18   3.979539505148408E-4     2.931064453993679E-4     2.0550478132840195E-4    2.738572553473497E-4     2.0713647229440128E-4    2.7761790627597833E-4    4.6654165023253394E-4    5.623154330807014E-4     2.7473840847898643E-4    2.665716947251269E-4     5.01801219957085E-4      4.0330276902333326E-4    2.530882102361496E-4     3.0110439161694716E-4    5.012969455761365E-4     4.612565335314906E-4     2.4329255734655895E-4    3.497904468148387E-4     5.190102538604588E-4     3.6593204984886106E-4
0.10311321476172117       5                        -3.161351515494577E-18   0.001141373297558395     9.868290736485992E-4     9.158308512959093E-4     8.948769039774658E-4     8.525326493785407E-4     8.417676930178295E-4     8.347009823864311E-4     7.821660352549373E-4     7.765879103835745E-4     8.36077135572357E-4      8.140281250305568E-4     8.057021453006991E-4     8.388332920115267E-4     8.126801142700769E-4     7.958768548209929E-4     7.583907990415405E-4     8.075627796518842E-4     8.092070976816924E-4     7.630758733798697E-4     7.582319437739657E-4
0.08450875054403001       5                        8.834496673032208E-19    2.665346969506721E-4     1.8887480168475773E-4    1.4698228257181592E-4    1.4895280535090407E-4    1.3760916291137728E-4    1.8223594341219786E-4    2.596206069281442E-4     3.0682652447714954E-4    1.810633413895963E-4     2.0007326625645216E-4    2.975432362112487E-4     2.2922359606400918E-4    1.7814027792966274E-4    2.181836867692497E-4     2.8124237376775103E-4    2.6078669126763097E-4    1.907948880496032E-4     2.483654969281382E-4     2.8715196605150076E-4    2.2001820235778607E-4
0.07500000000000001       5                        -7.572055615561812E-19   1.4777161588284276E-4    8.491083179667583E-5     8.543306272771651E-5     3.110776480975767E-5     7.149613863473362E-5     9.064206089288092E-5     5.519506662144037E-5     6.822862249083377E-5     1.1272684112418383E-4    1.2648152172297766E-4    7.786761551403359E-5     6.542486933446805E-5     9.507994753326927E-5     1.2876323723414487E-4    6.8618675823736E-5       8.873715074868136E-5     1.3870176362717617E-4    1.3930215128491935E-4    7.909117087312474E-5     1.0704011382698918E-4
0.05598042505453292       5                        2.395037352673124E-19    4.195852135356608E-5     2.302959444542328E-5     1.7419702132905247E-5    1.456325523851406E-5     2.141057350602759E-5     1.0395081386994396E-5    1.96718537057136E-5      2.5218834627289625E-5    1.4203440109803052E-5    1.309015577535125E-5     3.0811429052249824E-5    3.060163786363412E-5     1.8720748707499417E-5    2.0993541531436766E-5    3.0343065095223026E-5    3.788722572437337E-5     1.8429137252488816E-5    2.2194415230052603E-5    3.6897203063185525E-5    3.625312727278938E-5
0.06549001754903443       5                        -2.59127636031639E-19    9.080355099972918E-5     5.66975456758114E-5      5.398973398962986E-5     2.3073768745309476E-5    4.677241191686206E-5     5.056781870006803E-5     3.85570010591046E-5      4.6542077827967604E-5    6.394618212881614E-5     7.256562392308211E-5     5.876306732099199E-5     4.766813928072594E-5     5.914456971598326E-5     7.762999809724251E-5     5.2043340279249015E-5    6.303650639763281E-5     7.984997296562964E-5     8.418321204054333E-5     5.862399139612532E-5     6.991297688501623E-5
0.037787953386604095      5                        -7.886935505768395E-20   1.1276467579447668E-5    9.11387011714478E-6      5.409753483014133E-6     5.348650472912455E-6     3.2919571647898388E-6    4.688331598779477E-6     7.560155838809076E-6     3.1118784417277545E-6    5.1565250553232824E-6    6.180694435298717E-6     6.698127249873254E-6     7.987930735614268E-6     4.8349198174944295E-6    1.1040057456946657E-5    9.349444102010312E-6     4.2695621690035915E-6    6.677460654046609E-6     1.1775758143403945E-5    5.22820873496191E-6      4.56920979264589E-6
0.04688397102322264       5                        8.039843092319735E-20    2.9629808176389137E-5    1.55145365440111E-5      1.172706997769363E-5     1.0156415502789146E-5    1.3237670609931862E-5    8.22110412733395E-6      1.350498563493957E-5     1.4812556391546639E-5    9.899956154462368E-6     9.815129762386934E-6     1.9517276521016798E-5    1.9367108206844556E-5    1.2370737982620145E-5    1.6201371463025446E-5    1.8450756234731355E-5    2.10515033837172E-5      1.2762677926985425E-5    1.6291671328473887E-5    2.0980658469650935E-5    2.1723779966199485E-5
0.018368250996012876      5                        3.6959595405968707E-20   5.069677991112327E-6     2.047023648777076E-6     2.739395780949923E-6     3.331595306212346E-6     2.9750345302171233E-6    3.064712269560762E-6     1.4874435856737298E-6    1.7053392694201824E-6    2.1642924430377662E-6    4.20882749380032E-6      2.551785990230592E-6     1.8683390819556109E-6    3.1875082115911547E-6    5.296469578530226E-6     2.4728657264598297E-6    3.151688057591024E-6     2.894552360919205E-6     1.4115067840618038E-6    3.5348752184149177E-6    4.551076136272109E-6
0.028077946137212845      5                        -2.0980704813805282E-20  7.5650763719551615E-6    5.456987546286333E-6     3.999595637866994E-6     4.2908784449006205E-6    2.9162884055181984E-6    3.769097542333629E-6     4.676972613405E-6        2.3565262759814363E-6    3.738635765749985E-6     5.109183477889565E-6     4.558779961571546E-6     5.2737962176803245E-6    4.084822777785004E-6     7.769776120922047E-6     6.59204965369263E-6      4.053096156804178E-6     4.948457930996666E-6     6.921345704173712E-6     4.315615940779788E-6     4.114223911837222E-6
0.013505345863556666      5                        9.745494610890342E-21    3.996553054444797E-6     1.9686036107270718E-6    2.3235390698721594E-6    2.5387301472923303E-6    2.200784779047121E-6     1.971633309696151E-6     1.3070565611942844E-6    1.7211424631721917E-6    1.7616229107155113E-6    3.0392409922479737E-6    2.6320085321009413E-6    2.115632814585399E-6     2.3603907303651664E-6    3.4558521977785905E-6    1.9164255421782315E-6    2.4231650524534305E-6    2.3268532926141875E-6    1.4256213412331276E-6    2.698189996051772E-6     3.2073093459055084E-6
0.008641377116580385      5                        -1.7487997264410912E-20  2.560126235816836E-6     1.2249334861854685E-6    1.7817948876314476E-6    1.5860699875500382E-6    1.2723818121598054E-6    8.728579771327869E-7     1.0568115105796041E-6    1.6910833758601617E-6    1.237975454890649E-6     1.7995924086034264E-6    2.38498197708008E-6      2.3303485844699656E-6    1.4939479564026791E-6    1.1755083674045779E-6    1.4790076308074533E-6    1.9080820681145893E-6    1.8056953646886975E-6    1.3076019311677253E-6    1.4984499731161649E-6    1.5596146949488137E-6
0.0068490441046264545     5                        -6.024856939135917E-21   2.0028561130866467E-6    1.0877175445667556E-6    1.600335909800026E-6     1.3323480471438582E-6    1.1149004071578226E-6    6.936990378574345E-7     9.008057966341528E-7     1.5124646663620455E-6    1.1998218591607886E-6    1.5020590497577114E-6    2.1244020494541165E-6    2.0082527772722974E-6    1.1892680108405328E-6    8.91318269635379E-7      1.2126703894143782E-6    1.488771786807892E-6     1.442768804173959E-6     1.303689704518007E-6     1.2853900042741974E-6    1.1488206415085655E-6
0.0050567859375           5                        5.434801028635099E-21    1.5238781998348604E-6    8.45841065679277E-7      1.3395492118723772E-6    1.0142661330529972E-6    9.434701399023727E-7     5.693750056424144E-7     7.247737911955704E-7     1.3095905502665413E-6    1.1344203249085954E-6    1.163613489280762E-6     1.6108095784348613E-6    1.5897562201098246E-6    1.0127441103880726E-6    7.88243812874102E-7      1.0313205939865048E-6    1.0613687138672673E-6    9.728713566647755E-7     1.2327113797857069E-6    1.1808220331713213E-6    8.646481997537238E-7
0.004400908593749997      5                        2.8285632228990948E-21   1.4148199820823062E-6    8.033115631825853E-7     1.2771003436615472E-6    9.556691600133882E-7     8.97374316867888E-7      5.32076699111322E-7      6.79907122690622E-7      1.266606846470664E-6     1.1190972856311511E-6    1.1047334639370253E-6    1.4995440228026868E-6    1.4698675820463838E-6    9.506177940592227E-7     7.570914319028056E-7     1.0021105134813752E-6    1.0054638713161858E-6    8.786922663017198E-7     1.2468288865537646E-6    1.1385750995745424E-6    7.814249467683138E-7
0.0037450312499999997     5                        2.2093200797105152E-22   1.3233862406824497E-6    7.629626355885556E-7     1.2119124636592557E-6    8.797871092344422E-7     8.564062689733311E-7     4.998127640336848E-7     6.649394348390652E-7     1.2012024381810137E-6    1.0829878611817203E-6    1.0113934221450892E-6    1.3919354737328216E-6    1.3883735626010092E-6    9.270211408703668E-7     7.393793384216825E-7     9.78150500484763E-7      9.25230621738422E-7      7.947544293657578E-7     1.1787961879409618E-6    1.081302202256918E-6     7.597016704326434E-7
0.0031747031249999983     5                        1.2186628577972599E-22   1.260231869619711E-6     7.353324698546682E-7     1.1732604307816792E-6    8.459308840410189E-7     8.305203436765798E-7     4.79039972578746E-7      6.376397053439009E-7     1.1694752715336909E-6    1.0659199464862149E-6    9.83513834940436E-7      1.3212631584220595E-6    1.32907055537638E-6      8.989445580213392E-7     7.227125972645619E-7     9.626249274687019E-7     9.144506022953901E-7     7.406539532142641E-7     1.1557817463966122E-6    1.053583384140606E-6     7.155103830647011E-7
0.002604375               5                        2.272577697658193E-23    1.2079366025161212E-6    7.162525948436034E-7     1.137450567096938E-6     8.009033585730288E-7     8.019081561274259E-7     4.5781837810840883E-7    6.410427726273798E-7     1.1254896056852036E-6    1.0344467244276092E-6    9.259273960169665E-7     1.2668480301979112E-6    1.2764350530678085E-6    8.774907593572339E-7     7.12862027483411E-7      9.541482981280735E-7     8.632068742369383E-7     6.922982763667045E-7     1.1119893845094104E-6    1.0129903494393938E-6    7.129192553753201E-7
0.0021084374999999988     5                        1.342646199590645E-23    1.1745649324431803E-6    6.9869632222393E-7       1.116633027528574E-6     7.767891649631223E-7     7.873135069056842E-7     4.464120553133881E-7     6.305882238419081E-7     1.1033622121801034E-6    1.0159491358943939E-6    9.077661391146331E-7     1.2218623551026509E-6    1.2524523923022838E-6    8.805114716174805E-7     7.066084288981671E-7     9.438669029308207E-7     8.608573496752757E-7     6.598242339283927E-7     1.081498843666586E-6     9.976751949348264E-7     7.026739963807057E-7
0.0016125                 5                        4.116365959888316E-24    1.1469553800161268E-6    6.908472702227985E-7     1.0977935808915923E-6    7.579764494869357E-7     7.688043916751258E-7     4.3522330747586674E-7    6.343673604611662E-7     1.0798956187556894E-6    1.0004578738964738E-6    8.797488674561725E-7     1.1917932127405252E-6    1.2206780042152839E-6    8.460483606170259E-7     7.028447782450125E-7     9.467511199844391E-7     8.318127087388253E-7     6.387426001283395E-7     1.0593725281436139E-6    9.764324933792182E-7     6.893065071272961E-7
0.0011812499999999987     5                        2.688055006487274E-24    1.1330174579912936E-6    6.823503590885013E-7     1.0877026791382388E-6    7.399529366619963E-7     7.606797207149129E-7     4.3019834542389044E-7    6.351031911093361E-7     1.068076769233208E-6     9.919562031470689E-7     8.615330334227352E-7     1.1667179008360907E-6    1.2080782845836662E-6    8.502636025951285E-7     7.003527954044553E-7     9.383008392889951E-7     8.242674806386661E-7     6.201697809713129E-7     1.0419382385680594E-6    9.690421870458202E-7     6.938608979219011E-7
7.5E-4                    5                        1.2575901239668646E-24   1.1195213255965604E-6    6.783202812181084E-7     1.0784487372916303E-6    7.36806052255969E-7      7.515156590803202E-7     4.2698582771062215E-7    6.321163661845762E-7     1.05637038673547E-6      9.906658572184371E-7     8.524242375133418E-7     1.1524344562265136E-6    1.1947940303913874E-6    8.273094788850321E-7     7.014542428590376E-7     9.442837153387417E-7     8.140723350277613E-7     6.191262489098939E-7     1.0332804705001484E-6    9.619908336766747E-7     6.729996831335389E-7
3.7499999999999914E-4     5                        9.890698194153409E-25    1.1143634785341053E-6    6.758313491155286E-7     1.0747970580812838E-6    7.296010340894629E-7     7.484373747496989E-7     4.2513908181646137E-7    6.35874850724396E-7      1.0524298548349097E-6    9.87558184132337E-7      8.424545976311426E-7     1.1435680214738746E-6    1.189010070203829E-6     8.268426216628352E-7     7.012565194993958E-7     9.422132772753367E-7     8.047177396128376E-7     6.123418572036093E-7     1.0272098957852763E-6    9.588620759886473E-7     6.769902429271197E-7
0                         5                        7.200853404019471E-25    1.1097576190614337E-6    6.73939091680337E-7      1.071570494016814E-6     7.294439268867972E-7     7.453010329653942E-7     4.256839532942924E-7     6.297299115839373E-7     1.047930901552448E-6     9.90909977381277E-7      8.405921308106405E-7     1.1387755548463058E-6    1.1855381658815891E-6    8.197900493868609E-7     7.00613045155267E-7      9.431903216714672E-7     8.068212869248801E-7     6.14938261548882E-7      1.0251250385355575E-6    9.55990380123803E-7      6.655705035628018E-7
0.16994999999999996       5                        0.0341760568085403       0.02307296153641151      0.01973323312897609      0.018595737988511975     0.01818402864084036      0.01799283855685853      0.01788551979022384      0.017869223269580865     0.0178951454923533       0.017855735436763664     0.017814227009903483     0.01787783761562009      0.017881000236467038     0.01783854685577658      0.01785055535015291      0.017885041075045936     0.017873798389799463     0.01784107053130858      0.01786254380304416      0.017882817546441762     0.017855958152786084
0.16999999999999996       5                        0.03554215823206224      0.023091523789348412     0.019749255874418094     0.018611040549128696     0.01819914375449364      0.018007896557582514     0.017900562329519445     0.017884250775074724     0.017910160406459714     0.017870771737530308     0.01782927608213042      0.01789285219065449      0.017896024292436176     0.01785358986189018      0.017865586404518505     0.017900059132600718     0.017888826069644963     0.017856112202769003     0.017877571602838628     0.017897836969092605     0.01787099339978675
0.16990000000000002       5                        0.03280995601615202      0.023054376884361252     0.019717212040799133     0.018580482913778697     0.01816898541145936      0.01797786238814898      0.01787056466131353      0.017854285691819002     0.0178802173739721       0.01784078376917008      0.017799268932355325     0.017862911513329797     0.01786606186828036      0.017823591872743433     0.0178356147316003       0.017870110191790384     0.017858854107617332     0.017826118435223814     0.017847608107341914     0.017867881702039783     0.01784100853665576
0.1698425                 5                        0.031017030010027064     0.023033014470129752     0.019698773520900638     0.018562873466862216     0.01815159183868956      0.01796053459709808      0.017853254692232493     0.017836993057402814     0.017862939238707194     0.01782348097897755      0.0177819514504563       0.017845633793756414     0.017848773186666552     0.017806281365082048     0.01781831801704367      0.017852828439646272     0.017841561253050427     0.01780880946981083      0.01783031514085167      0.017850598372735664     0.017823706964491128
0.169785                  5                        0.02922410486535166      0.02301162630436569      0.019680336931014532     0.018545318654480725     0.018134280979153847     0.01794330097008807      0.017836045310378024     0.017819803907985182     0.017845760978137754     0.01780627557546808      0.017764738687261653     0.017828457880095846     0.017831583104595955     0.01778907215093102      0.017801125373296103     0.017835646997621073     0.017824364360847535     0.017791603589179007     0.017813128165973524     0.017833411208306154     0.017806503931664355
0.16971887499999996       5                        0.027292587486826954     0.022987038580129425     0.019659116264040093     0.01852505255900814      0.01811426354922275      0.017923359323835184     0.01781612421406171      0.01779990280716957      0.01782587657656833      0.01778636274090143      0.017744808951266774     0.01780857399071452      0.01781168653072483      0.017769150432921987     0.017781219581736663     0.01781575843410857      0.017804462980815956     0.01777168365455633      0.01779322669171909      0.01781352082138942      0.01778659250604268
0.16965275                5                        0.02536107129231443      0.022962421251526366     0.019637897848652774     0.018504849327446386     0.018094341300882347     0.017903526042023485     0.017796318879515407     0.017780120804297007     0.017806107109840784     0.017766561978539933     0.017724999740877607     0.017788807260576203     0.017791903423925504     0.01774934529114068      0.017761433563812424     0.017795985306258692     0.017784672030409676     0.017751882364245006     0.01777344720304255      0.017793741090141348     0.01776679448520792
0.16957670624999996       5                        0.02334579102444929      0.02293411763235044      0.019613472403793436     0.018481523143714478     0.018071301625283344     0.017880573695804022     0.017773390238050118     0.017757215237963246     0.01778322078102848      0.017743642846013645     0.017702061163851875     0.017765921566051522     0.01776900303864669      0.01772641593161594      0.01773852260501816      0.017773094187861344     0.01776176610844407      0.017728955068603183     0.01775054121845469      0.017770847862015004     0.017743876983856315
0.16950066249999998       5                        0.02133051239503828      0.022905779981310027     0.01958904959086423      0.018458269298880593     0.018048371489848142     0.017857746069105045     0.017750594837149004     0.01773444675373477      0.017760466731846728     0.01772085269920815      0.017679261322542043     0.01774317071385257      0.01774623324328626      0.017703620752238546     0.017715749508038604     0.017750335925149234     0.01773898727712141      0.017706164342167142     0.01772777564341057      0.0177480819754059       0.017721090010013922