% Model:              outside_in_originalconfiguration_countercurrent_10mins.mph
% Version:            COMSOL 6.3.0.420
% Date:               May 14 2026, 16:22
% Dimension:          2
% Nodes:              241
% Expressions:        21
% Description:        Molar concentration, is
% Length unit:        mm
% r                       z                        is (mol/m^3) @ t=0       is (mol/m^3) @ t=0.5     is (mol/m^3) @ t=1       is (mol/m^3) @ t=1.5     is (mol/m^3) @ t=2       is (mol/m^3) @ t=2.5     is (mol/m^3) @ t=3       is (mol/m^3) @ t=3.5     is (mol/m^3) @ t=4       is (mol/m^3) @ t=4.5     is (mol/m^3) @ t=5       is (mol/m^3) @ t=5.5     is (mol/m^3) @ t=6       is (mol/m^3) @ t=6.5     is (mol/m^3) @ t=7       is (mol/m^3) @ t=7.5     is (mol/m^3) @ t=8       is (mol/m^3) @ t=8.5     is (mol/m^3) @ t=9       is (mol/m^3) @ t=9.5     is (mol/m^3) @ t=10
0.149625                  15                       4.528377237199934E-11    0.00996552600470587      0.008482562077120392     0.007851793075923175     0.007500315100927116     0.007291264199415136     0.00717472753080275      0.0071223148195968256    0.007100891628665105     0.007098692927441173     0.007103390057604693     0.007102879366394315     0.00710319296335464      0.007106756478858443     0.0071054749850552375    0.007103488410665716     0.007106211669391314     0.007106188538623818     0.007103387837868091     0.007105439931281401     0.007106841788383137
0.15000000000000002       15                       7.176703753991789E-11    0.010132474777299526     0.008624946455364543     0.007983611802856429     0.007626445348123267     0.007414182357013724     0.00729589523370333      0.007242732378213294     0.007221102528577345     0.007218879606789432     0.007223600563772142     0.007223137517025536     0.007223464815852073     0.007227017226164515     0.007225748748165714     0.007223767761033804     0.0072264742279590215    0.007226456708157139     0.007223669094236303     0.007225706140397437     0.0072271056990734495
0.14924999999999997       15                       1.8791766540035518E-11   0.0097982048433781       0.008339885575515606     0.007719708926794924     0.007374000402737706     0.007168252644776642     0.0070535340434258855    0.0070019109340074895    0.006980721570470038     0.006978552942380623     0.006983220543740341     0.00698266575475651      0.0069829658210344295    0.0069865338040770025    0.006985241955891881     0.00698325333652261      0.0069859880411366326    0.006985959526979457     0.006983151582646498     0.006985214232783779     0.006986615713375541
0.14881875                15                       1.1303263199588708E-11   0.009605431476734767     0.008175498627569172     0.007567529267693371     0.00722839383612158      0.007026359887092635     0.006913666575673515     0.006862913823531935     0.006841962875220526     0.0068398220415739185    0.006844464075223901     0.006843853210262847     0.006844136279417482     0.006847718781004597     0.006846411623487887     0.006844415114141727     0.0068471705554956274    0.006847136163772879     0.006844311216375581     0.00684639188379081      0.006847797410380394
0.1483875                 15                       3.812121083465248E-12    0.009412237291510323     0.008010781546345734     0.007415048737921892     0.007082579693168256     0.006884364174791079     0.006773774412120939     0.0067239368194137086    0.00670325565706324      0.006701150008323329     0.006705759390541135     0.0067050964546382825    0.006705363263314853     0.006708952260481012     0.006707632687328379     0.006705632854273466     0.006708402694426366     0.006708362250990246     0.006705527519520166     0.0067076212552897325    0.006709027183145359
0.14789156250000005       15                       2.1825632315435663E-12   0.0091899519958073       0.007821254737659135     0.007239609516873145     0.006914728410988171     0.006720805448698855     0.006612559628889306     0.006563735795874498     0.006543328499921355     0.006541253943718456     0.006545839223163914     0.006545109035327826     0.006545352829846808     0.0065489631482428395    0.006547625438785678     0.006545612448931575     0.006548409710399727     0.006548364386335026     0.006545504864896884     0.006547620871135057     0.006549035465855625
0.147395625               15                       5.523933751436085E-13    0.008967206102227175     0.007631365656046441     0.0070638387142223525    0.006746652923859793     0.006557141808406639     0.0064513308476323115    0.00640357037115531      0.006383472992984368     0.006381439880564707     0.006385991547562785     0.006385198351998437     0.006385421518752904     0.006389042993391724     0.006387689893773623     0.006385670325408432     0.006388487338645329     0.006388435658920188     0.00638556091905476      0.006387694262163864     0.006389111757323183
0.146825296875            15                       3.008356755696622E-13    0.008711460404676144     0.00741333966209935      0.006862038885535814     0.006553597258251304     0.006369043040448624     0.0062659443052681795    0.0062193702799654025    0.006199585103068846     0.006197585265234583     0.0062021207147239564    0.006201244864077075     0.00620143415232155      0.0062050898990755644    0.006203715098681898     0.006201671649534611     0.006204527572112939     0.006204474496727906     0.006201560178314001     0.006203722143868542     0.006205158275421991
0.14625496875             15                       4.917765548322966E-14    0.00845523739624333      0.007194935387318295     0.006659890542999665     0.006360316526350001     0.006180853670959059     0.006080573340639628     0.006035238431273064     0.006015806570139844     0.006013855879370902     0.006018361323757869     0.006017406815492543     0.006017568290461732     0.0060212447101601185    0.006019850044861452     0.006017793090460822     0.006020678392830982     0.006020619455689796     0.006017679191680601     0.006019865843308484     0.006021310618310275
0.14559909140625          15                       2.5257895762509283E-14   0.008161999002809527     0.006944979177675711     0.006428567454500244     0.006139040559974893     0.005965290801971494     0.0058681455070189095    0.005824207168243093     0.0058051265985687855    0.005803208548329133     0.0058077176535656205    0.005806658495244686     0.005806766744818556     0.0058105012598325375    0.005809080302153918     0.0058069789930223215    0.005809922973101194     0.0058098707709683065    0.00580686380313248      0.005809088826022102     0.005810571820037032
0.1449432140625           15                       1.328037698297664E-15    0.007868315145600609     0.006694662707484882     0.006196908612686689     0.005917570678145785     0.005749682978097224     0.005655797684434891     0.005613307833240927     0.0055946248330708236    0.005592765311749681     0.005597256805792804     0.005596095789657512     0.005596164195267674     0.005599937578714957     0.005598489839833776     0.00559636148899704      0.005599351932668726     0.005599295967835454     0.005596242900551098     0.005598505243055347     0.0056000085324284885
0.14315079756621646       15                       5.847857212712892E-16    0.007081474567412033     0.006024076868785005     0.005576517841645906     0.0053242513544879185    0.005171881073904977     0.005086565968533885     0.005048107073263527     0.005030294945793633     0.005028463673670007     0.005033160301032126     0.005031636691309176     0.005031434603752305     0.005035528799577128     0.005034001040051167     0.005031603125386643     0.005034871985822044     0.005034910312181213     0.005031491881307835     0.005033901621517914     0.005035656655945736
0.14135838560199024       15                       -1.5881044294594278E-16  0.0062942936614005865    0.005353119802933697     0.0049557512199895435    0.004730946517857256     0.004594450104439508     0.0045180717797719885    0.0044837098725663315    0.004466881985513944     0.004465215917311343     0.004470013978324002     0.004468118706659981     0.004467737781907064     0.004472069931189233     0.004470438018826316     0.004467864335661441     0.004471368904410996     0.004471426233399021     0.004467739129981277     0.004470325185280406     0.0044722288654555995
0.1364935421868818        15                       -6.443448463085865E-17   0.004435503931622763     0.003772458399762995     0.0034951743854068403    0.003333568278400568     0.0032352034101110604    0.0031789325423422633    0.003158407376155907     0.0031426539149302926    0.003138721462693138     0.0031475391167606693    0.003144148308336657     0.00314017038200591      0.0031480889362219227    0.0031469078135527503    0.003140513913301437     0.0031462180256921555    0.003148672071497009     0.0031410494843709816    0.0031437203364041606    0.0031493174250430936
0.1316287690202457        15                       2.9982248130199886E-17   0.002587741933223856     0.0021970652349785763    0.0020400424490261628    0.0019428407645926586    0.0018826656912288792    0.0018480701376465147    0.0018405578123589974    0.0018256548965248781    0.0018208886297036795    0.0018329189513322005    0.0018275686248067232    0.0018211802846991323    0.0018321292721594413    0.0018306851938477207    0.0018215556875825053    0.0018295296503909786    0.0018333318052685824    0.0018222484701286056    0.0018258318042451522    0.0018341667235632784
0.12191885203337899       15                       1.0559722614862343E-17   0.001366275328366871     0.0011660927145388605    0.0010771999636680365    0.0010275256494004484    9.975275721841826E-4     9.785058899479462E-4     9.672721027976722E-4     9.673473881060149E-4     9.656709984333786E-4     9.634930802507598E-4     9.668462191434976E-4     9.667128394002118E-4     9.645581279993325E-4     9.663949787702094E-4     9.672823185084135E-4     9.651696575083742E-4     9.651274031237993E-4     9.677920141893832E-4     9.662228360617614E-4     9.647118608073369E-4
0.1122089034490866        15                       -8.872864870376273E-18   2.526900067018066E-4     2.3180476753342923E-4    2.053111428295558E-4     1.9665250044716815E-4    1.949182340332525E-4     1.8852169537255563E-4    1.7759739821838873E-4    1.9067110868661204E-4    1.8935916782375985E-4    1.7710040863315332E-4    1.880984563016566E-4     1.9113885097689045E-4    1.791327560530711E-4     1.8486914877704135E-4    1.9206027728905812E-4    1.8146042387824274E-4    1.8045693863951475E-4    1.9311667465914893E-4    1.8593647401718438E-4    1.7825703771431087E-4
0.10311322711975425       15                       -3.171002320065651E-18   1.379913110287803E-4     1.2062893246180639E-4    1.1109591191575864E-4    1.0620526167682324E-4    1.0291692456998744E-4    1.0073167281933023E-4    9.902880459534787E-5     9.993541666574513E-5     1.0031853668362534E-4    9.870837566683006E-5     9.952226463293598E-5     1.0080787046086375E-4    9.901346389880494E-5     9.914274567254162E-5     1.0059297601397242E-4    9.943912911015816E-5     9.882906324723297E-5     9.992440218802708E-5     9.933129397883799E-5     9.844382267889421E-5
0.09401751881805298       15                       2.5352250491243094E-18   4.0423786069199006E-5    2.2828043494709057E-5    2.6324606140242213E-5    2.6759421373814384E-5    2.1983270376038794E-5    2.4590770892594924E-5    2.7715953036323424E-5    1.9327507735070553E-5    2.2518892825908325E-5    2.780108528230802E-5     2.0778295576132502E-5    2.1843948651650806E-5    2.729465749049875E-5     2.2380594617504868E-5    2.0961202185908245E-5    2.710024731940179E-5     2.4918533654864064E-5    1.8565118333687473E-5    2.4163423072516953E-5    2.663035646198959E-5
0.08450876501439386       15                       8.883876517159098E-19    2.2689085947566307E-5    1.3876262930714738E-5    1.3949665330610585E-5    1.389531624549739E-5     1.2590294717784323E-5    1.378865399457929E-5     1.424901517755031E-5     1.1314447585393623E-5    1.2744483401435683E-5    1.4138388348427562E-5    1.1712562015058075E-5    1.2253415234537006E-5    1.4069128785879134E-5    1.2341373456009367E-5    1.2169074581284179E-5    1.3897561554111028E-5    1.3263170392528561E-5    1.1733043214645398E-5    1.3749996514388755E-5    1.3915258842036646E-5
0.07500000000000001       15                       -7.60001334707989E-19    5.399662555187501E-6     5.6381473684146905E-6    4.176528283129424E-6     2.7123988499625628E-6    4.21416852656832E-6      3.6435206039422117E-6    3.4834797012612984E-6    4.631469173237875E-6     4.1245045914006376E-6    3.1365402315982012E-6    3.988770068584259E-6     3.958250099635973E-6     3.1266355537978355E-6    3.919491954276356E-6     3.973910293310779E-6     2.6236145267442533E-6    3.872965920415807E-6     5.154989641731648E-6     3.7209503330862544E-6    3.485086978263954E-6
0.055982490495172774      15                       2.4037980268225113E-19   7.603488403650602E-7     4.909174935067564E-7     5.400210290500157E-7     6.472627257301957E-7     4.434847717666526E-7     4.89157821738162E-7      6.182710978057682E-7     3.812778527358077E-7     3.803008427341713E-7     7.181912997325491E-7     6.516203297985352E-7     4.774840333773953E-7     5.421851548552211E-7     6.720363847453169E-7     5.779289068870381E-7     6.889142790201667E-7     6.268850825195634E-7     4.3540608182230025E-7    5.604643995793814E-7     7.17704778921445E-7
0.06549124197052546       15                       -2.5955199640214917E-19  3.790841251672425E-6     3.347883240816521E-6     2.374347841502565E-6     1.823987359735102E-6     2.600198585276211E-6     2.4396779217576604E-6    2.1508195975912744E-6    2.635838249702176E-6     2.4836122678482543E-6    2.041263866742896E-6     2.4620246670461685E-6    2.31577598136307E-6      1.961536754377788E-6     2.47274495030324E-6      2.5329865193515073E-6    1.745682879688725E-6     2.3990990415732396E-6    3.1585482994913633E-6    2.583100649937454E-6     2.1931110583012323E-6
0.03779110940501791       15                       -7.915075588238115E-20   1.9185627471433077E-7    1.3393575025322752E-7    9.833460073073796E-8     7.173674428233723E-8     1.1530983066785071E-7    1.1248974932640973E-7    6.188737242729205E-8     1.019973798556633E-7     1.4011374058445508E-7    1.0534063481628982E-7    8.920585952432523E-8     1.2901217871049905E-7    1.1565875719519899E-7    9.872302368042672E-8     1.0589538467244535E-7    9.53734449465036E-8      6.270224662665512E-8     1.0207629181341047E-7    1.3451743114299368E-7    5.4090662170730154E-8
0.04688678433971712       15                       8.052774341476159E-20    4.110315462135562E-7     3.890942113259307E-7     4.075384094454388E-7     3.7467823454295915E-7    2.8000844634437126E-7    2.7201330104944446E-7    3.8656089711284254E-7    2.9556800825531703E-7    2.462134091311569E-7     4.2456102277079166E-7    4.37692485619894E-7      3.5628651955249926E-7    3.5365474199883103E-7    4.372095172210984E-7     3.775291317991342E-7     4.345656728551797E-7     3.924027148201199E-7     2.6876402812926864E-7    3.222147187278919E-7     4.642088777572301E-7
0.018371238651059482      15                       3.708705086800302E-20    6.43716507372254E-9      1.9824623417923845E-8    2.3797986569164816E-8    2.0146469982389217E-8    1.6053409687593477E-8    4.656226746275869E-9     1.6276339462596733E-8    1.9978800535875846E-8    4.427196179752705E-9     1.7657367965322156E-8    2.6540878100584004E-8    1.6039042238308186E-8    1.2920899675329166E-8    2.3614018684370548E-8    1.8900427401684055E-8    2.2310349617056972E-8    2.51446897889371E-8      2.1330324909436945E-8    8.800746116937445E-9     2.3008428249885434E-8
0.028081156033160175      15                       -2.0999123061744988E-20  1.3498868223785712E-7    7.076551359213688E-8     5.430762868007406E-8     5.7515956436338246E-8    7.255861440480328E-8     7.641667999808477E-8     4.530692668645511E-8     6.08976326016166E-8      8.347586735299355E-8     8.045624099406813E-8     5.856911656594291E-8     6.547813048988113E-8     7.280984532049552E-8     6.680409368294825E-8     5.9130772527686745E-8    6.819047030589434E-8     4.807192729666381E-8     6.199108873418998E-8     8.948494842064664E-8     3.380110873948949E-8
0.008641614858963196      15                       -1.755092788744261E-20   8.893604723442975E-9     6.004949729543975E-9     4.763270159305852E-9     1.5303380543863253E-9    2.9351576819104324E-9    5.122154070706954E-9     2.530150560264998E-9     3.004425643391186E-9     3.291378512400475E-9     5.4280343880872005E-9    1.0201080750755914E-9    1.8299430905242835E-9    6.03306215720485E-9      2.9893850671404667E-9    1.4398682897850296E-9    4.591170454727445E-9     2.4747620669567303E-9    2.4542203481564683E-9    3.897325655093408E-9     2.9874752747738875E-9
0.013506461566161466      15                       9.752069728494233E-21    2.720340768445549E-9     1.894791092080987E-8     1.880036938657594E-8     9.932708950779003E-9     1.0557944628914495E-8    3.3781690924321186E-9    8.327209907132444E-9     1.405920294659254E-8     5.545777340720426E-9     8.863430777703659E-9     1.6927751921128744E-8    1.7275207128444666E-8    1.1581780684865002E-8    1.5351831718258197E-8    1.6005724834085998E-8    1.534254283275366E-8     1.2790851198809448E-8    1.6340409008826332E-8    6.505642142411427E-9     1.694199713370199E-8
0.00684919832706391       15                       -6.0537295839383864E-21  5.15824776442075E-9      4.433274800509078E-9     2.9063723351814792E-9    -2.952885805566939E-10   4.7927208957086E-10      1.965745819220026E-9     1.958194433621108E-10    1.505514542690155E-9     2.3164523495540017E-9    1.2286505036985589E-9    -1.169523709429908E-10   2.559755541441982E-9     3.4306093064495626E-9    1.716159062307793E-9     1.618512082778592E-9     2.1428679752494333E-9    -2.621758810967262E-10   1.411746246993536E-9     1.8058402559685702E-9    2.304434336431491E-9
0.0050567859375           15                       5.45783831133576E-21     2.03762816469975E-9      1.5400808336656597E-9    8.1498620435973E-10      -2.2297169755667893E-10  -2.365710969466904E-10   4.652637588013871E-12    -4.7205081204046634E-11  5.17015970061664E-10     8.961085275736816E-10    3.1782113935545974E-10   4.1397894438909745E-10   7.325290394705912E-10    4.689642326705144E-10    8.69429579314624E-10     2.029452600006867E-10    3.4803503147808486E-10   1.4483614802346038E-10   4.761584785213379E-10    1.193936272888143E-10    3.535892962633299E-10
0.0044009085937499965     15                       2.8416617345257637E-21   1.3913761807607828E-9    9.94384404594464E-10     4.161442994947248E-10    -2.8819819586496014E-10  -4.1061305566851264E-10  -3.382847417204284E-10   -1.8397401561404593E-10  2.8335928548693327E-10   6.482398186913017E-10    5.041612301570998E-11    4.675696294162771E-10    4.666788234371251E-10    -8.078683449609974E-11   5.445272370432748E-10    -1.4014124671642961E-11  3.573342392055468E-11    1.649541819446376E-10    2.427704761053176E-10    -2.3075681879597005E-10  -6.387856250131257E-11
0.0037450312499999997     15                       2.2187190067405054E-22   1.2815432458697713E-9    7.289493144140454E-10    2.33316881950345E-10     -2.5191800278559407E-10  -3.979449169547997E-10   -2.533559081317391E-10   -1.2642173661717593E-10  1.5162941210772083E-10   3.7558744581880524E-10   -1.038860418296325E-11   3.164419072492508E-10    2.938881483856991E-10    -4.9795209431748387E-11  4.189116738253119E-10    -2.9403421653082475E-11  -9.884773461137144E-12   8.286869163562681E-11    9.026293856095306E-11    -2.2696616032944202E-10  -1.5104875746325383E-11
0.0031747031249999974     15                       1.2239548759318299E-22   9.782951875634271E-10    4.4659042086168006E-10   5.164001535640256E-11    -2.7082689272974305E-10  -4.528125124430643E-10   -3.6598105609510416E-10  -1.852538373396356E-10   1.4900347854953914E-11   2.2326446539259173E-10   -9.411144209448165E-11   3.5298292738276345E-10   1.5359265391900385E-10   -2.680147618318643E-10   2.4239955036185933E-10   -1.2733712249297527E-10  -1.355018064874162E-10   1.2518578875022441E-10   -3.81112417344996E-11    -3.809147163797445E-10   -2.250979138964538E-10
0.002604375               15                       2.2823207453726328E-23   9.154487149481969E-10    3.284267978270531E-10    -2.1316427381295207E-11  -2.414588066214778E-10   -4.1365668971148616E-10  -2.978279826634519E-10   -1.444991369077057E-10   -3.133496706997559E-11   1.0933465511971537E-10   -1.1301855868176779E-10  2.5707980325426516E-10   8.48003988464147E-11     -2.1880524444613468E-10  1.9672667765876345E-10   -1.1512959802868684E-10  -1.330030405577366E-10   6.47261508621007E-11     -9.198186842320072E-11   -3.3235008637863506E-10  -1.5236157325401442E-10
0.002108437499999998      15                       1.3482891112372235E-23   7.729292246096275E-10    1.8409499103541874E-10   -9.369174325548381E-11   -2.481139577072016E-10   -4.2620091697932934E-10  -3.3176552247939384E-10  -1.7556030728902406E-10  -1.0736964009548468E-10  2.6624427964250913E-11   -1.2996674060616506E-10  2.695162282157231E-10    2.088929709605854E-11    -3.027172648854574E-10   1.0297586577701168E-10   -1.5816932588848754E-10  -1.8281293111645662E-10  9.980543621289816E-11    -1.5997941429790138E-10  -3.9873662150294183E-10  -2.6006050819097304E-10
0.0016125                 15                       4.134077442277547E-24    7.376735434626147E-10    1.3369066185210873E-10   -1.276027051622669E-10   -2.2831636629044429E-10  -3.952951497549952E-10   -2.90449915704263E-10    -1.4847031449847658E-10  -1.2026131993961932E-10  -2.0647261984665245E-11  -1.3917959641528926E-10  2.16552741528831E-10     -7.811023537063995E-12   -2.685647423686048E-10   8.886258640904253E-11    -1.4406663155862805E-10  -1.7396160698326827E-10  5.982719292708729E-11    -1.7563969757299535E-10  -3.577362602426164E-10   -2.0387893102139739E-10
0.0011812499999999983     15                       2.6991629712520506E-24   6.75373205453878E-10     6.709362385539887E-11    -1.5097083017439503E-10  -2.3111699495712493E-10  -3.9635069385637904E-10  -3.00033294089713E-10    -1.6429985934847294E-10  -1.5734113412670018E-10  -5.938637039899897E-11   -1.3780183019163564E-10  2.1882120830987408E-10   -3.348270927154002E-11   -2.9961584467484827E-10  4.396403618094639E-11    -1.6165533914825358E-10  -1.9254307512178274E-10  8.08283175676473E-11     -2.0815999263945027E-10  -3.847180349759976E-10   -2.552093857806701E-10
7.5E-4                    15                       1.262993359199915E-24    6.579635500822579E-10    4.697879215197257E-11    -1.6771800212892343E-10  -2.202501276646884E-10   -3.79154675645916E-10    -2.7920640326299947E-10  -1.491891792122225E-10   -1.5969218015753783E-10  -7.828688522439037E-11   -1.432465308382606E-10   1.9353260705633156E-10   -4.5513254058101913E-11  -2.8165641756465714E-10  4.079575575431747E-11    -1.5289530884058222E-10  -1.8691188719465808E-10  5.884925839375721E-11    -2.1152687840132388E-10  -3.6119855136382107E-10  -2.2277289900571196E-10
3.749999999999984E-4      15                       9.931966599903626E-25    6.373260432161806E-10    2.4356181160975854E-11   -1.7338547663363876E-10  -2.212838581155356E-10   -3.7871506039333537E-10  -2.816225555295349E-10   -1.5512431109193858E-10  -1.7268410338826484E-10  -9.136263021580225E-11   -1.408561175253994E-10   1.9380709219991265E-10   -5.3512068101772266E-11  -2.9099425631718553E-10  2.5002302526644003E-11   -1.5845738249451146E-10  -1.9231101004133864E-10  6.720128499058844E-11    -2.2282082428844514E-10  -3.698336130727854E-10   -2.4093214591108263E-10
0                         15                       7.231704176193365E-25    6.312338272413178E-10    1.8041302305804212E-11   -1.7959285718040867E-10  -2.1722249894097798E-10  -3.7241981020802974E-10  -2.741855249152566E-10   -1.493379757736865E-10   -1.7280823729395265E-10  -9.740640405318364E-11   -1.4317585234025601E-10  1.8496358847486327E-10   -5.7499274703759245E-11  -2.845644414197051E-10   2.4707383699558644E-11   -1.5513401823605537E-10  -1.9033947276793126E-10  5.891132779008949E-11    -2.2329509486596134E-10  -3.6103615605642215E-10  -2.2853995298233384E-10
0.16994999999999996       15                       0.03417615655388215      0.01842160159248589      0.015712149586921416     0.01454986538603045      0.01391043899366036      0.013537976000556654     0.01333225764060825      0.013241499133251317     0.013209125130747474     0.0132057119966488       0.013211783076271648     0.013213466450379255     0.01321450049756221      0.013217727049440353     0.013216940677621195     0.013215152271739215     0.0132172483132168       0.013217438369317887     0.013215111169162129     0.013216611587639582     0.013217937140713272
0.16999999999999996       15                       0.03554225311113941      0.01844098817115069      0.01572878315699151      0.014565292262910565     0.013925215565897146     0.01355238697715511      0.013346471036656704     0.013255628543970568     0.013223231436651542     0.0132198162880395       0.01322589029252113      0.013227578499961656     0.013228614294968008     0.013231839899180843     0.013231054520622496     0.013229266765349352     0.013231361346549335     0.013231551714294576     0.013229225780136902     0.013230724987373935     0.013232050144456116
0.16990000000000002       15                       0.03281006039338305      0.01840216836309719      0.015695478986512395     0.01453440645442369      0.013895640438679746     0.013523553823136622     0.013318041134051195     0.013227371309123997     0.013195023351588179     0.013191612980622337     0.013197680592636915     0.0131993593438533       0.013200391688492607     0.013203618585786734     0.013202831387767025     0.013201042689682814     0.013203139746687808     0.013203329447041239     0.013201001518634644     0.01320250280765928      0.013203828456826425
0.1698425                 15                       0.031017141018447957     0.018379857906351924     0.015676337593784395     0.014516653905432171     0.013878636357777828     0.013506970539169522     0.013301685275521913     0.013211112127621268     0.013178790767686561     0.013175382720381663     0.01318144696712612      0.013183120151727734     0.013184150485658835     0.013187378475419939     0.013186590131339892     0.01318480068454565      0.013186899424879637     0.013187088764621826     0.013184759377852476     0.013186262063881595     0.01318758816799364
0.16978500000000002       15                       0.0292242221849566       0.018357493787367334     0.015657153602839022     0.014498864474811447     0.013861606981537083     0.013490374366304484     0.01328532583717008      0.0131948547713195       0.013162563393982444     0.013159158531530194     0.013165218787736806     0.013166886649083363     0.013167915024254233     0.013171143412413995     0.013170354115350964     0.013168564332615339     0.013170664243427261     0.013170853172221633     0.013168522946755582     0.013170026636645692     0.013171352850515856
0.16971887499999996       15                       0.027292713902460387     0.018331815724366367     0.015635124069726728     0.01447843362941846      0.01384203769195113      0.013471289472124635     0.01326650275719449      0.013176142994147665     0.013143882239843958     0.013140480058826272     0.013146536442746874     0.013148197891522113     0.013149223953442254     0.013152453601452051     0.013151662981371354     0.013149872336945648     0.013151974188896907     0.013152162700045315     0.013149830794198444     0.013151336096046216     0.013152662832511115
0.16965275000000002       15                       0.025361206363979993     0.01830607593134235      0.015613045531038277     0.014457960345400336     0.01382243929262876      0.013452189745191866     0.013247675556805309     0.013157433316781923     0.013125207083314924     0.013121808574469715     0.013127860365581648     0.013129515683440353     0.013130539491685517     0.013133769599404568     0.013132977879614847     0.013131186848978606     0.013133290050451347     0.013133478086573981     0.01313114521462656      0.013132651674533221     0.01313397853622608
0.16957670624999996       15                       0.023345938650498527     0.018276518303665563     0.015587689144876722     0.014434444458563598     0.013799915276927284     0.013430223417976922     0.013226010679743258     0.01313589660229525      0.013103705632652207     0.013100310219665106     0.013106357554704736     0.013108005483588554     0.013109026630363858     0.0131122581915654       0.013111464943615248     0.013109672921145843     0.013111778361964952     0.013111965913892697     0.013109631105185445     0.013111139426002467     0.013112466887892003
0.1695006625              15                       0.02133067196629765      0.018246889661979206     0.015562276378991702     0.01441087973452938      0.013777357758425545     0.013408240019179524     0.01320434105942564      0.013114362303683805     0.013082211087033613     0.013078819909736202     0.013084861958161718     0.013086502824347581     0.013087521377946502     0.013090753469869359     0.013089958952246947     0.013088166485799083     0.013090273483167115     0.01309046048558624      0.013088124563746008     0.013089634221125766     0.013090961825708684