% Model:              inside_out_countercurrent_10mins.mph
% Version:            COMSOL 6.3.0.420
% Date:               Apr 23 2026, 15:43
% Dimension:          2
% Nodes:              671
% Expressions:        2
% Description:        Molar concentration, is
% Length unit:        mm
% R                       Z                        is (mol/m^3) @ t=0       is (mol/m^3) @ t=1
0.14962499999999998       15                       0.09999999999999996      0.08670799907123641
0.15                      15                       0.09999999999999995      0.08658541346624976
0.14925                   15                       0.1                      0.08683080667450938
0.14881875                15                       0.1                      0.08697243672891815
0.1483875                 15                       0.1                      0.08711431301543053
0.1478915625              15                       0.1                      0.08727791021130339
0.14739562499999997       15                       0.1                      0.08744176374157239
0.14682529687499998       15                       0.1                      0.08763063990008296
0.14625496875             15                       0.1                      0.08781975121754046
0.14559909140625          15                       0.1                      0.08803761712847744
0.1449432140625           15                       0.1                      0.08825563065366804
0.14237312320399662       15                       0.10000000000000002      0.08911025571556655
0.14365270915446793       15                       0.10000000000000002      0.0886849532084093
0.13765103822954328       15                       0.10000000000000002      0.09066206068820115
0.1399921813859874        15                       0.10000000000000002      0.0898984245510514
0.12905251723264008       15                       0.10000000000000002      0.09329215810691724
0.1329464852317539        15                       0.10000000000000002      0.09207557921216329
0.12234485432745654       15                       0.10000000000000002      0.09494007107647569
0.114775889735795         15                       0.10000000000000002      0.09682189203258715
0.10420701005941779       15                       0.10000000000000002      0.09818857898762273
0.0936381313143637        15                       0.10000000000000002      0.09957310635616767
0.07987709550404387       15                       0.10000000000000002      0.09969323271632702
0.06611605743035404       15                       0.10000000000000002      0.09980208336835614
0.05555802851481398       15                       0.10000000000000002      0.09986731301516283
0.045000000000000005      15                       0.10000000000000002      0.09994369077218734
0.03749999999999982       15                       0.10000000000000002      0.09995006759182071
0.030000000000000013      15                       0.10000000000000002      0.09995428166146907
0.02249999999999982       15                       0.10000000000000002      0.09996056521502691
0.015000000000000015      15                       0.10000000000000002      0.09996640500445297
0.007499999999999812      15                       0.1                      0.09996820828935202
0                         15                       0.09999999999999999      0.09997030637999338
0.24974999999999997       15                       0.052101472341307416     0.030902157690114937
0.25                      15                       0.03564391322561081      0.03079147135618252
0.2495                    15                       0.06855762740471735      0.03101309767874294
0.24921249999999998       15                       0.07921878172184009      0.031140635449196822
0.24892499999999998       15                       0.08987947667626413      0.031268464837770196
0.24859437499999998       15                       0.09389013257925333      0.03141546364070798
0.24826375                15                       0.09790067514599146      0.03156279768216343
0.24788353125             15                       0.09882044906656293      0.031732285889293416
0.24750331250000002       15                       0.09974022408458327      0.03190215944361456
0.2470660609375           15                       0.09986303377868042      0.03209765633565578
0.24662880937499998       15                       0.0999863573737572       0.032293596119727194
0.2453991244110889        15                       0.1000006523618316       0.03284623164830894
0.24591105815177383       15                       0.09999348914508324      0.03261657108208186
0.24412951941998218       15                       0.09999999463195298      0.03342182786773028
0.24278959879103895       15                       0.09999991268787         0.034027169643127284
0.23987461469516416       15                       0.10000000285567168      0.03536971881230995
0.23687555762608037       15                       0.10000001465718132      0.0367470467382271
0.2242409095948662        15                       0.09999999705857887      0.042773552941229136
0.23053251830049154       15                       0.10000001257699684      0.03976909557509546
0.2128564682608537        15                       0.09999999750872454      0.048622688475392
0.201472027041018         15                       0.1000000008091098       0.05448271186711384
0.17641755555980454       15                       0.09999999969671562      0.06893904698587414
0.1884838309846421        15                       0.09999999983232652      0.06200064375844158
0.1703651312268452        15                       0.10000000006332196      0.07283025550198459
0.1639649897908763        15                       0.10000000011128965      0.07690143403771887
0.16136901104202023       15                       0.09999999998166406      0.07865976166155408
0.15823264225573203       15                       0.09999999996480657      0.08077231556232226
0.15667187945798583       15                       0.10000000000405673      0.08185737215414503
0.15508458433688269       15                       0.10000000000961717      0.08295859271997483
0.153371190625            15                       0.09999999999839404      0.08416725423653226
0.15422424782839442       15                       0.10000000000821516      0.0835649249964281
0.15293393906249997       15                       0.09999999999858789      0.08447803239832122
0.15249668749999998       15                       0.09999999999992315      0.08478937970357013
0.15211646874999996       15                       0.09999999999993407      0.08506107724307625
0.15173624999999996       15                       0.09999999999999286      0.0853332716123264
0.151405625               15                       0.09999999999999384      0.08557064251297523
0.15107499999999996       15                       0.09999999999999896      0.08580844695000014
0.15078749999999996       15                       0.0999999999999991       0.0860157050446761
0.1505                    15                       0.0999999999999998       0.08622334130735712
0.15025                   15                       0.09999999999999983      0.08640421250739587
0.26995                   15                       9.569742679559033E-14    0.026948336208029985
0.27                      15                       8.929150534488385E-14    0.02693902985769996
0.26990000000000003       15                       1.0547967878608288E-13   0.026957665516205372
0.26984250000000004       15                       1.142672704904082E-13    0.026968371501929295
0.26978500000000005       15                       1.2767734509067302E-13   0.02697910388965879
0.269718875               15                       1.4006299150975259E-13   0.02699142064838312
0.26965275000000005       15                       1.5894849817832146E-13   0.027003767770032043
0.2695767062500001        15                       1.7695724234547898E-13   0.027017938496916454
0.26950066250000004       15                       2.0439040498775738E-13   0.027032144141949564
0.26941321218750003       15                       2.315288208550132E-13    0.027048449024375143
0.2693257618750001        15                       2.7282212926508385E-13   0.02706479406366167
0.26922519401562506       15                       3.154364561539368E-13    0.027083555997406104
0.26912462615625          15                       3.801888976696563E-13    0.027102364112775716
0.2690089731179688        15                       4.503510335780549E-13    0.027123955330591205
0.2688933200796876        15                       5.567868566268282E-13    0.027145599658796513
0.2687603190856641        15                       6.787911557367486E-13    0.02717044942651431
0.26862731809164064       15                       8.635018856638406E-13    0.027195360273020844
0.2684743669485137        15                       1.0894719477869499E-12   0.02722396383774825
0.2683214158053867        15                       1.4307460390832215E-12   0.027252637645257316
0.2681455219907907        15                       1.8809849581719996E-12   0.027285566656235535
0.26796962817619474       15                       2.558893949797003E-12    0.02731857644889495
0.26776735028940934       15                       3.535301620645895E-12    0.027356491115906066
0.26756507240262395       15                       4.999778394880863E-12    0.02739449868453632
0.26733245283282075       15                       7.336622170585786E-12    0.027438161993703206
0.26709983326301756       15                       1.0824046917574439E-11   0.027481932142378762
0.2668323207577439        15                       1.7098833209336765E-11   0.027532226517874625
0.2665648082524702        15                       2.640038572453148E-11    0.027582643760933834
0.2662571688714055        15                       4.5679576120240943E-11   0.02764059064764472
0.26594952949034073       15                       7.398970714048201E-11    0.02769867883279059
0.2655957442021163        15                       1.433643080305121E-10    0.027765461784961427
0.26524195891389185       15                       2.43793529997677E-10     0.02783240722816282
0.2648380765865553        15                       5.391581578577336E-10    0.027908836305768868
0.2644341942435885        15                       9.567024001686763E-10    0.027985450879058286
0.2639338611295098        15                       2.7817876827725925E-9    0.028080413963231445
0.2634335279650817        15                       5.2135963221917685E-9    0.028175606827868606
0.26281521591562074       15                       1.4094109014915802E-8    0.028293397134828792
0.2621969039321395        15                       1.265079857284599E-9     0.02841147134126577
0.261226411329357         15                       -2.5541010654915756E-7   0.028597333508401684
0.26025591904143774       15                       -4.080231206204184E-7    0.028783641210457192
0.25864651747856304       15                       1.1419388336888836E-6    0.029094550364393203
0.25703711597917517       15                       2.3921384531394445E-6    0.029406197542510455
0.25438832416287915       15                       -2.073600314362944E-5    0.02992367521706115
0.25566036607524023       15                       -8.197663403967133E-6    0.029675510606311687
0.25354112802408435       15                       4.633660101572145E-4     0.030090680848355908
0.2526714108421572        15                       7.932485221712167E-4     0.030261617828632938
0.25215063418933414       15                       0.0029929178170523627    0.030364770380712603
0.2515539776434861        15                       0.005260507673689265     0.030482642277024553
0.25098843987026914       15                       0.011627158213643005     0.03059484084219847
0.2512673987650722        15                       0.008515466631270834     0.030539565845585766
0.2506742381249999        15                       0.017300501077809352     0.030657266745560557
0.25082437566729565       15                       0.014577105668278086     0.03062739884252763
0.25058678781249993       15                       0.01928802985609651      0.030674638095928537
0.2504993375              15                       0.02127453973882952      0.030692049396049095
0.25042329374999994       15                       0.023248971415851437     0.030707163644454614
0.2503472499999999        15                       0.025222716207246303     0.0307223126277707
0.25028112499999994       15                       0.027111948720076322     0.03073546205969763
0.25021499999999997       15                       0.02900070832751268      0.030748641692839196
0.2501574999999999        15                       0.030749624921545954     0.0307600809833165
0.2501                    15                       0.032498210489926974     0.03077154653339133
0.25005                   15                       0.034071179180368436     0.030781497528456735
1.7998470000000002        15                       2.335691966034098E-181   -1.8816923250270986E-18
1.8000000000000003        15                       2.2664820679823267E-181  -1.8817696075380676E-18
1.7996940000000001        15                       2.6014858247337755E-181  -1.8816345304924686E-18
1.79951805                15                       2.8819603375982075E-181  -1.881354807276333E-18
1.7993421                 15                       3.9591556665662857E-181  -1.8811455994578466E-18
1.7991397575000003        15                       4.69920370486819E-181    -1.880572032557267E-18
1.7989374150000002        15                       7.541783140511216E-181   -1.8801430026923206E-18
1.7987047211250002        15                       9.482716074723864E-181   -1.8791510708226348E-18
1.7984720272500003        15                       1.6939333869857037E-180  -1.8784089966589497E-18
1.7982044292937502        15                       2.2553568670442793E-180  -1.8768299843599415E-18
1.7979368313375002        15                       4.41273011406262E-180    -1.875648517598448E-18
1.7969888804832794        15                       2.8364492470700742E-179  -1.8687114034065992E-18
1.7974462322819145        15                       1.0588494075032925E-179  -1.8715349123925563E-18
1.7960852113370929        15                       -6.852363085339113E-179  -1.8570676970369457E-18
1.7951496946672594        15                       -3.189886252937439E-178  -1.8481149754303283E-18
1.791982307909954         15                       1.4720364604941483E-177  -1.790243609150249E-18
1.7935427692650596        15                       1.720843041295144E-178   -1.8144551444942737E-18
1.7888324643229392        15                       -2.3695117335741208E-178 -1.6778265045291432E-18
1.7856358796648901        15                       -4.738404380229498E-177  -1.5925070582977772E-18
1.781322329256267         15                       1.0183865369460516E-177  -1.342813644057713E-18
1.777008351603413         15                       1.6184115172823E-176     -1.1552184078821443E-18
1.7713926981199486        15                       -3.453733044437627E-177  -6.752845628846574E-19
1.7657765942878658        15                       -5.52433537223152E-176   -3.1425538808437203E-19
1.7614684197021901        15                       2.6912834753427605E-176  1.6512511781267383E-19
1.7571600000000003        15                       2.4360244192291765E-175  5.259363375570596E-19
1.7541000000000002        15                       -1.49197014294174E-175   9.225012578646051E-19
1.7510400000000002        15                       -1.1855075990822591E-174 1.2209712370609956E-18
1.74798                   15                       4.887231554040354E-175   1.6632105085974499E-18
1.74492                   15                       4.9055272845367745E-174  1.9959727476146717E-18
1.74186                   15                       -1.974106273022247E-174  2.4838054416175093E-18
1.7388                    15                       -2.0120364755204974E-173 2.850693842727311E-18
1.7357399999999998        15                       8.08852454465687E-174    3.384769699194859E-18
1.7326800000000002        15                       8.248109276918135E-173   3.786145868269705E-18
1.7296200000000002        15                       -3.317020975104362E-173  4.367901103967876E-18
1.72656                   15                       -3.3810778008396E-172    4.80469520847367E-18
1.7235                    15                       1.3603716107809444E-172  5.436402595608801E-18
1.72044                   15                       1.3859608427096485E-171  5.91014852426659E-18
1.71738                   15                       -5.57926166960468E-172   6.594964344416548E-18
1.7143199999999998        15                       -5.681233468609989E-171  7.107831054036478E-18
1.71126                   15                       2.2882569145047956E-171  7.849841333218162E-18
1.7082000000000002        15                       2.328789962285658E-170   8.404662090383552E-18
1.7051400000000003        15                       -9.38516587592158E-171   9.208930296633891E-18
1.7020800000000003        15                       -9.545838803235117E-170  9.809231313892224E-18
1.6990200000000006        15                       3.849360176773153E-170   1.0681849456430444E-17
1.6959600000000008        15                       3.9128576409515293E-169  1.1331879190300773E-17
1.6929000000000007        15                       -1.5788646161291058E-169 1.228002400382697E-17
1.6898400000000005        15                       -1.6038740396201291E-168 1.298478412810731E-17
1.6867800000000006        15                       6.476066610281995E-169   1.4016779758346006E-17
1.6837200000000005        15                       6.574198489332198E-168   1.4782058550753727E-17
1.6806600000000005        15                       -2.65636730049791E-168   1.5907446875981534E-17
1.6776000000000004        15                       -2.6947085227038527E-167 1.673985545594542E-17
1.6745400000000004        15                       1.0896215473096738E-167  1.796947487870447E-17
1.6714800000000005        15                       1.1045294383651102E-166  1.8876486402947014E-17
1.6684200000000007        15                       -4.469658262005369E-167  2.0222559617888917E-17
1.6653600000000004        15                       -4.5273012911369687E-166 2.12125511689175E-17
1.6623000000000006        15                       1.833514630548635E-166   2.268878204470755E-17
1.6592400000000007        15                       1.8556590796587934E-165  2.377107852269549E-17
1.6561800000000007        15                       -7.521530352320523E-166  2.5392757812377666E-17
1.6531200000000004        15                       -7.605955217352252E-165  2.6577676646691813E-17
1.6500600000000003        15                       3.085603862092007E-165   2.8361795741961526E-17
1.6470000000000005        15                       3.117498166153933E-164   2.9660690654156715E-17
1.6439400000000006        15                       -1.2658627095898778E-164 3.162606200006085E-17
1.6408800000000003        15                       -1.2777785975031495E-163 3.305136335019441E-17
1.6378200000000005        15                       5.193329544029616E-164   3.5218745407927444E-17
1.6347600000000004        15                       5.237235030025014E-163   3.678399380976151E-17
1.6317000000000004        15                       -2.1306806247724122E-163 3.917621756028484E-17
1.6286400000000003        15                       -2.146573001199934E-162  4.089608642122014E-17
1.6255800000000002        15                       8.741871024849682E-163   4.3538179297839594E-17
1.62252                   15                       8.798051475509051E-162   4.542848068162703E-17
1.6194600000000001        15                       -3.5867768792365915E-162 4.8347782453216016E-17
1.6164                    15                       -3.605991229300653E-161  5.042544912417792E-17
1.6133400000000002        15                       1.4716977453589999E-161  5.365171255988638E-17
1.6102800000000002        15                       1.477951763719821E-160   5.593474718259179E-17
1.60722                   15                       -6.038756977949595E-161  5.950021423891325E-17
1.60416                   15                       -6.057499357056923E-160  6.200759440064575E-17
1.6011000000000002        15                       2.4779441563552047E-160  6.594703609339618E-17
1.5980400000000001        15                       2.482699248429224E-159   6.869856099723919E-17
1.5949800000000005        15                       -1.0168359269712857E-159 7.304926594794964E-17
1.5919200000000007        15                       -1.0175425199013326E-158 7.606532718337618E-17
1.5888600000000004        15                       4.172785167947429E-159   8.086701993512639E-17
1.5858000000000003        15                       4.170410788293988E-158   8.416827454147552E-17
1.5827400000000005        15                       -1.7124477007480707E-158 8.94629399726582E-17
1.5796800000000004        15                       -1.7092398922632188E-157 9.306985891533322E-17
1.5766200000000006        15                       7.027892748024798E-158   9.890144326237552E-17
1.5735600000000003        15                       7.005275530238279E-157   1.0283370225985741E-16
1.5705000000000002        15                       -2.8843623718985865E-157 1.0924765417945142E-16
1.56744                   15                       -2.8710816306228024E-156 1.1352332633537404E-16
1.56438                   15                       1.1838366316741904E-156  1.2056593284241257E-16
1.5613200000000003        15                       1.176695465254081E-155   1.252004334955972E-16
1.5582600000000002        15                       -4.859049819141908E-156  1.3291789520829649E-16
1.5552                    15                       -4.8225966782698185E-155 1.3792261851298674E-16
1.55214                   15                       1.9944764837154203E-155  1.4635979607214669E-16
1.5490800000000002        15                       1.9764973372883994E-154  1.517403697048794E-16
1.5460200000000004        15                       -8.187000990751322E-155  1.6093911809869873E-16
1.5429600000000003        15                       -8.100467014180893E-154  1.6669318673841953E-16
1.5399000000000003        15                       3.3607753432239344E-154  1.7669017607476112E-16
1.53684                   15                       3.319881037425477E-153   1.8280460542669047E-16
1.5337800000000001        15                       -1.3796635704864525E-153 1.936285048854805E-16
1.5307200000000003        15                       -1.3606102314902775E-152 2.0007587543976956E-16
1.5276600000000005        15                       5.664040410965422E-153   2.1174375104760332E-16
1.5246000000000004        15                       5.57627005424979E-152    2.1847798380541208E-16
1.5215400000000003        15                       -2.3254085952126026E-152 2.3099072953061696E-16
1.5184800000000003        15                       -2.2853505605037892E-151 2.3794165380395885E-16
1.5154200000000004        15                       9.547558681472723E-152   2.512782383750691E-16
1.5123600000000004        15                       9.366146187755895E-151   2.583448735531389E-16
1.5093000000000005        15                       -3.9201788100714606E-151 2.724551413136446E-16
1.5062400000000002        15                       -3.83855900964441E-150   2.794974191179179E-16
1.5031800000000004        15                       1.6096825469670013E-150  2.9429313093709203E-16
1.5001200000000003        15                       1.5731669284264368E-149  3.011217309195306E-16
1.4970600000000003        15                       -6.609913057533262E-150  3.164654692868871E-16
1.4940000000000002        15                       -6.447343437548213E-149  3.228293767235812E-16
1.4909400000000006        15                       2.714393101694253E-149   3.385208660541338E-16
1.4878800000000005        15                       2.6423255605740855E-148  3.4409218629169636E-16
1.4848200000000005        15                       -1.1147347706530705E-148 3.5985149331156447E-16
1.4817600000000002        15                       -1.0829078105535144E-147 3.6420696812438243E-16
1.4787000000000003        15                       4.578175964649752E-148   3.796539458719444E-16
1.4756400000000003        15                       4.4380930265116765E-147  3.822525132887521E-16
1.4725800000000002        15                       -1.880337709676981E-147  3.9688173333370443E-16
1.4695200000000002        15                       -1.8188680239058974E-146 3.9703735017505526E-16
1.4664600000000003        15                       7.72328353842812E-147    4.1018762836687767E-16
1.4634000000000003        15                       7.454284505792174E-146   4.0703643152439605E-16
1.4603400000000004        15                       -3.1724234453729066E-146 4.1785388979935763E-16
1.4572800000000004        15                       -3.054997427248831E-145  4.103146048053064E-16
1.4542200000000003        15                       1.3031777737578904E-145  4.1770802176004393E-16
1.45116                   15                       1.252033534466802E-144   4.04434331717607E-16
1.4481000000000002        15                       -5.353524632024814E-145  4.0702131379689247E-16
1.44504                   15                       -5.131229293689638E-144  3.863446740500904E-16
1.44198                   15                       2.1993778747816752E-144  3.823869228007445E-16
1.43892                   15                       2.1029422800087455E-143  3.522480420575779E-16
1.43586                   15                       -9.036163373448087E-144  3.3957369593774764E-16
1.4328                    15                       -8.618543457187493E-143  2.974405975667043E-16
1.4297400000000002        15                       3.7127245931603304E-143  2.7335128366121066E-16
1.4266800000000002        15                       3.532166073198094E-142   2.1612150555975082E-16
1.4236200000000003        15                       -1.5255487375312288E-142 1.772813410150288E-16
1.4205600000000005        15                       -1.447602064751286E-141  1.01165422103113E-16
1.4175000000000006        15                       6.268799436383294E-142   4.3468750288767635E-17
1.4144400000000006        15                       5.932779921918818E-141   -5.614832113119786E-17
1.4113800000000007        15                       -2.5761303604808437E-141 -1.377341963493526E-16
1.4083200000000007        15                       -2.431466970300919E-140  -2.6645744063468717E-16
1.4052600000000006        15                       1.0587092205064192E-140  -3.7807885580234784E-16
1.4022000000000006        15                       9.965055663511436E-140   -5.426981579534073E-16
1.3991400000000005        15                       -4.3512212913332935E-140 -6.918360400800999E-16
1.3960800000000004        15                       -4.084062974195085E-139  -9.005566081562565E-16
1.3930200000000004        15                       1.788428037005281E-139   -1.0962875621713808E-15
1.3899600000000005        15                       1.6738117280745007E-138  -1.3590020060644842E-15
1.3869000000000005        15                       -7.35119239282921E-139   -1.6123062061445873E-15
1.3838400000000006        15                       -6.859972711611837E-138  -1.940915180224801E-15
1.3807800000000006        15                       3.0218320044551675E-138  -2.2650387244745824E-15
1.3777200000000005        15                       2.811511766256341E-137   -2.6738281279042145E-15
1.3746600000000004        15                       -1.2422506390307417E-137 -3.0847086351059943E-15
1.3716000000000006        15                       -1.152283358569248E-136  -3.590792551929965E-15
1.3685400000000005        15                       5.107103888080379E-137   -4.1075580363270624E-15
1.3654800000000007        15                       4.72259468121407E-136    -4.731397937863405E-15
1.3624200000000006        15                       -2.0997464834147448E-136 -5.376950405233387E-15
1.3593600000000006        15                       -1.9355490884012353E-135 -6.1429626444777696E-15
1.3563000000000005        15                       8.633479942173439E-136   -6.944659422089827E-15
1.3532400000000009        15                       7.932863349540427E-135   -7.88192473891414E-15
1.3501800000000006        15                       -3.5500289221832555E-135 -8.872372295061475E-15
1.3471200000000003        15                       -3.251308337970173E-134  -1.0015462937230521E-14
1.3440600000000005        15                       1.45983914792932E-134    -1.12334398739103E-14
1.3410000000000006        15                       1.3325664639183932E-133  -1.2623382037544141E-14
1.3379400000000006        15                       -6.003511390597933E-134  -1.4114910062427401E-14
1.3348800000000005        15                       -5.461629988682876E-133  -1.58003016811954E-14
1.3318200000000004        15                       2.4690676567925496E-133  -1.7619885690473107E-14
1.3287600000000004        15                       2.238507121012401E-132   -1.965819216920879E-14
1.3257000000000003        15                       -1.0155189889107644E-132 -2.1870253107040796E-14
1.3226400000000005        15                       -9.174821735852348E-132  -2.432930641473855E-14
1.3195800000000006        15                       4.177058807184876E-132   -2.700983332046028E-14
1.3165200000000006        15                       3.7604505041663786E-131  -2.99695629395334E-14