% Model:              inside_out_countercurrent_10mins.mph
% Version:            COMSOL 6.3.0.420
% Date:               Apr 23 2026, 15:43
% Dimension:          2
% Nodes:              671
% Expressions:        2
% Description:        Molar concentration, is
% Length unit:        mm
% R                       Z                        is (mol/m^3) @ t=0       is (mol/m^3) @ t=1
0.14943749999999995       19.5                     0.09999999999999999      0.08441893743272072
0.14999999999999997       19.5                     0.09999999999999996      0.08420517987941281
0.14925                   19.5                     0.09999999999999999      0.0844911772231477
0.14860312499999997       19.5                     0.1                      0.08473771073962408
0.1483875                 19.5                     0.1                      0.08482123467797592
0.14764359374999997       19.5                     0.1                      0.08510489220515932
0.14739562499999997       19.5                     0.1                      0.08520153540111533
0.14654013281249997       19.5                     0.1                      0.08552691334839402
0.14625496875             19.5                     0.1                      0.08563879399298967
0.14527115273437496       19.5                     0.1                      0.08601073217877363
0.1449432140625           19.5                     0.1                      0.08614024347332114
0.1426400030249122        19.5                     0.1                      0.08701307013353497
0.14310354024236382       19.5                     0.1                      0.08682813754767293
0.13832423423399637       19.5                     0.1                      0.08861905440930098
0.13935091250300724       19.5                     0.1                      0.08821920390967986
0.132221947047077         19.5                     0.1                      0.09072620213953186
0.13009417349555424       19.5                     0.1                      0.09147810588233077
0.12616986228446517       19.5                     0.1                      0.09258666534283552
0.11477578328682653       19.5                     0.1                      0.09580337066489134
0.10949189162509534       19.5                     0.1                      0.09663057832232416
0.09363961529616446       19.5                     0.1                      0.09914180766624758
0.06611598606338241       19.5                     0.1                      0.099705963324799
0.07299649934328836       19.5                     0.1                      0.09956583031763853
0.05027909832491097       19.5                     0.1                      0.09979293047191568
0.045000000000000005      19.5                     0.1                      0.0998170291542451
0.03374999999999962       19.5                     0.1                      0.09987383561147775
0.030000000000000013      19.5                     0.1                      0.09989792588648608
0.01874999999999962       19.5                     0.1                      0.09992250998414533
0.015000000000000013      19.5                     0.1                      0.09992884440638601
0.0037499999999996135     19.5                     0.1                      0.09993761375415082
0                         19.5                     0.1                      0.09994114042952772
0.24962499999999999       19.5                     0.06032749903606062      0.019562264840771587
0.25                      19.5                     0.03564411293599853      0.019371766925685555
0.2495                    19.5                     0.06855810536574135      0.019626511390212487
0.24906874999999995       19.5                     0.08454859003823369      0.019846050319029973
0.24892499999999998       19.5                     0.08987967013903844      0.019920096116763493
0.24842906249999996       19.5                     0.09589528579433604      0.02017318549437927
0.24826374999999998       19.5                     0.09790072013912904      0.02025855360690408
0.24769342187499999       19.5                     0.09928033445663223      0.0205504302551065
0.24750331250000002       19.5                     0.09974023756359357      0.020648889815845232
0.24684743515625          19.5                     0.09992511983007077      0.02098564431440287
0.246628809375            19.5                     0.09998653152008141      0.021099253360918824
0.24533243495690912       19.5                     0.10000083299019832      0.021769708932300326
0.24559056706821497       19.5                     0.09999725612574556      0.02163494375828381
0.24342062466285272       19.5                     0.09999993593726202      0.02276347747219779
0.2427769089984991        19.5                     0.09999989401247088      0.02310194700701601
0.2364910887764782        19.5                     0.1000000190601961       0.02643851375146874
0.23801631887625416       19.5                     0.10000001304091864      0.025621913915581378
0.23332072164705595       19.5                     0.10000001801013121      0.028204519866830022
0.22424114413032678       19.5                     0.09999999625552937      0.03320156352991911
0.2185494543204881        19.5                     0.09999999648155064      0.036635780434502704
0.20147313904017206       19.5                     0.10000000102369075      0.04679529137907534
0.17569003371725045       19.5                     0.09999999961500232      0.06415513897530911
0.19502062083880967       19.5                     0.10000000095711543      0.05118771810810195
0.1632713474889952        19.5                     0.10000000014200433      0.07345263409440177
0.1725292601470814        19.5                     0.09999999963993861      0.06654864236632867
0.15778423627875762       19.5                     0.09999999995422296      0.07778858243975023
0.1618528111571208        19.5                     0.100000000133045        0.07458737480782168
0.1570998087621429        19.5                     0.09999999995701686      0.07835082004037372
0.15490673802214705       19.5                     0.10000000001204681      0.08012302936019808
0.153371190625            19.5                     0.09999999999829502      0.08138622965486055
0.15368020487778067       19.5                     0.09999999999888003      0.08112918581609825
0.15271531328124996       19.5                     0.09999999999991122      0.08192832800810092
0.15249668749999998       19.5                     0.09999999999991936      0.08211149829380834
0.15192635937499996       19.5                     0.09999999999999137      0.08258541949711659
0.15173625                19.5                     0.09999999999999254      0.08274554614436222
0.15124031249999997       19.5                     0.09999999999999881      0.08315958512460113
0.15107499999999996       19.5                     0.09999999999999894      0.0832994734217456
0.15064374999999997       19.5                     0.09999999999999978      0.0836609824157884
0.15049999999999997       19.5                     0.0999999999999998       0.08378311847411304
0.15012499999999995       19.5                     0.09999999999999996      0.08409859818132742
0.269925                  19.5                     1.2840160116055457E-13   0.014979290906353932
0.27                      19.5                     1.1232106679675644E-13   0.014963389659737812
0.26990000000000003       19.5                     1.3277422142874756E-13   0.014984615235260552
0.2698137500000001        19.5                     1.5481655807349164E-13   0.01500290866392374
0.26978500000000005       19.5                     1.6084478676259073E-13   0.015009034307614754
0.2696858125              19.5                     1.918871591925128E-13    0.015030081010515887
0.26965275000000005       19.5                     2.004299106478532E-13    0.015037129027413915
0.269538684375            19.5                     2.4552594482847504E-13   0.01506134499568228
0.26950066250000004       19.5                     2.58022263262181E-13     0.015069454881558508
0.2693694870312501        19.5                     3.2591375693141166E-13   0.015097319479621701
0.2693257618750001        19.5                     3.4487399304459236E-13   0.015106652023493507
0.2691749100859375        19.5                     4.513624758115769E-13    0.015138717813115137
0.26912462615625          19.5                     4.813693080625434E-13    0.01514945841089184
0.2689511465988282        19.5                     6.564685545577447E-13    0.015186362553332236
0.2688933200796876        19.5                     7.063280872041809E-13    0.015198725057473484
0.2686938185886524        19.5                     1.010333575512714E-12    0.015241202565220529
0.26862731809164064       19.5                     1.0979817468755223E-12   0.015255433763581959
0.26839789137695025       19.5                     1.6599808562056374E-12   0.015304332925552442
0.26832141580538676       19.5                     1.8244546777872814E-12   0.015320717760803463
0.2680575750834928        19.5                     2.9415995036341397E-12   0.015377018129307338
0.26796962817619485       19.5                     3.2745733488776607E-12   0.015395885792679486
0.2676662113460167        19.5                     5.6900884920210065E-12   0.015460719200021095
0.26756507240262406       19.5                     6.426576016541499E-12    0.015482450260805828
0.2672161430479192        19.5                     1.2185461811243237E-11   0.015557125432465154
0.2670998332630176        19.5                     1.3992522843577365E-11   0.015582160199105804
0.2666985645051071        19.5                     2.937654603256831E-11    0.015668191654714506
0.26656480825247025       19.5                     3.4387616243363397E-11   0.015697040006485738
0.26610334918087314       19.5                     8.131401247072937E-11    0.015796182096957132
0.2659495294903408        19.5                     9.739013755066767E-11    0.01582943507971359
0.2654188515580041        19.5                     2.644202892275853E-10    0.01594372220928624
0.2652419589138919        19.5                     3.2591364959307485E-10   0.015982065758122818
0.26443119658720876       19.5                     1.3194202672634025E-9    0.01615745357359315
0.265039063723111         19.5                     6.162998764209532E-10    0.016026180938150215
0.2634244894525062        19.5                     7.777381432640841E-9     0.016375973103508662
0.2641791202901246        19.5                     3.5850806858739476E-9    0.016212464517456115
0.2621533342933708        19.5                     -5.6495572811441024E-9   0.016653129110909222
0.2630820550142414        19.5                     9.628374563789737E-9     0.016451072098196774
0.26018314589816766       19.5                     -5.103212474787896E-7    0.017085312152660844
0.26163797638683073       19.5                     -1.9757459592487605E-7   0.016766937423357206
0.2594421765207534        19.5                     9.089075312662064E-7     0.017250610397910614
0.257029245352394         19.5                     3.256277843852912E-6     0.017783777702415342
0.25425642911500695       19.5                     -2.632236078201022E-5    0.018405023228561527
0.25632089414521814       19.5                     -7.165772563080043E-6    0.017943731152659122
0.2525292896227953        19.5                     0.001026799844359209     0.018795373194665635
0.25381524765236196       19.5                     2.745866000476774E-4     0.018505572962313026
0.25145447938920834       19.5                     0.006098368399482853     0.01903961652746027
0.2522548069842845        19.5                     0.002527838103627641     0.01885828682538182
0.25133807429714966       19.5                     0.007698276597949485     0.01906638145492063
0.25094797724340695       19.5                     0.012264755627105686     0.019155073075595802
0.25067423812499995       19.5                     0.017297637879649826     0.019217543855111405
0.25072201471174793       19.5                     0.01637302594068522      0.019206550894102052
0.2505430626562499        19.5                     0.020277697863986817     0.019247432404561296
0.2504993375              19.5                     0.02127309607184477      0.019257510594854615
0.2503852718749999        19.5                     0.02423378508086319      0.01928351714270084
0.25034724999999997       19.5                     0.025222059265445164     0.01929228673639198
0.2502480624999999        19.5                     0.028055178336238815     0.0193149136214854
0.25021499999999997       19.5                     0.02900049958513888      0.01932254385874188
0.25012874999999996       19.5                     0.03162332290491806      0.019342228869800474
0.2501                    19.5                     0.032498260851683454     0.01934886726712488
0.250025                  19.5                     0.03485729728663792      0.01936599182703156
1.7997705000000006        19.5                     1.8824431247009038E-181  -1.5852457144401125E-23
1.8000000000000007        19.5                     1.665973552153832E-181   -1.5852349162930212E-23
1.7996940000000006        19.5                     1.9122552140016497E-181  -1.5852464454856288E-23
1.7994300750000005        19.5                     2.789552175526315E-181   -1.5852855357889576E-23
1.7993421000000005        19.5                     2.91037800605346E-181    -1.5852881922562438E-23
1.7990385862500005        19.5                     5.225453271205287E-181   -1.5853683631687605E-23
1.7989374150000004        19.5                     5.544324813416577E-181   -1.585373836561946E-23
1.7985883741875004        19.5                     1.1617208652463034E-180  -1.58551251999617E-23
1.7984720272500005        19.5                     1.245377885149761E-180   -1.5855220379039652E-23
1.7980706303156255        19.5                     3.0024087787624476E-180  -1.5857428684692785E-23
1.7979368313375006        19.5                     3.2444897362909305E-180  -1.585758113758087E-23
1.796974238933692         19.5                     2.2346132201045074E-179  -1.5863696398458622E-23
1.79720189634393          19.5                     2.0545216182201693E-179  -1.5863347245314576E-23
1.7956227454096994        19.5                     -2.4321504429735932E-178 -1.587992132480523E-23
1.7951582060964855        19.5                     -2.679167550463596E-178  -1.5881105086277752E-23
1.7919744991143252        19.5                     1.2210266880735993E-177  -1.5931569445224414E-23
1.7927508734109945        19.5                     1.0913574258485766E-177  -1.592839949919486E-23
1.7872537081147324        19.5                     -3.503291774247867E-177  -1.6089705960044885E-23
1.7856561580497998        19.5                     -3.9515427374118945E-177 -1.6101793794253264E-23
1.7791882858897727        19.5                     1.197705639592516E-176   -1.6458306428509318E-23
1.7770320148802201        19.5                     1.3487169354580002E-176  -1.6486139401106842E-23
1.7685964717471685        19.5                     -4.0951086490409146E-176 -1.7194230912299133E-23
1.7657806845659456        19.5                     -4.6105394733031595E-176 -1.7251140481813384E-23
1.759316028558545         19.5                     1.816834677986927E-175   -1.7990533817950923E-23
1.7571600000000003        19.5                     2.0325638430602805E-175  -1.8050887536153194E-23
1.75257                   19.5                     -8.848776914343502E-175  -1.8690374097487375E-23
1.75104                   19.5                     -9.881014127816912E-175  -1.8743407891789282E-23
1.7464499999999998        19.5                     3.6507361005305937E-174  -1.9490151719421954E-23
1.74492                   19.5                     4.090696841240548E-174   -1.9553245175831414E-23
1.74033                   19.5                     -1.4981162380490254E-173 -2.042292467471385E-23
1.7388000000000001        19.5                     -1.6788603460854025E-173 -2.0498029699422635E-23
1.73421                   19.5                     6.1459120242859834E-173  -2.1511489216119607E-23
1.7326800000000002        19.5                     6.886840042217851E-173   -2.160135085628367E-23
1.72809                   19.5                     -2.521355207897363E-172  -2.2785706315007698E-23
1.72656                   19.5                     -2.825043330057683E-172  -2.2894083283313277E-23
1.7219699999999998        19.5                     1.0344184701996138E-171  -2.4284142978427006E-23
1.72044                   19.5                     1.158890635094517E-171   -2.4416088473726308E-23
1.7158499999999997        19.5                     -4.243980197451904E-171  -2.6056189398598886E-23
1.7143199999999998        19.5                     -4.754147754298095E-171  -2.621841192808463E-23
1.7097299999999997        19.5                     1.741266112751439E-170   -2.816479756441853E-23
1.7082                    19.5                     1.9503642503809023E-170  -2.836612651021207E-23
1.7036099999999998        19.5                     -7.144494463967899E-170  -3.069002574112679E-23
1.70208                   19.5                     -8.001501990104284E-170  -3.094201311287821E-23
1.6974900000000004        19.5                     2.9315158841134545E-169  -3.373362428346167E-23
1.6959600000000008        19.5                     3.2827661467423486E-169  -3.405132296012622E-23
1.6913700000000003        19.5                     -1.202893626977387E-168  -3.742496521644226E-23
1.6898400000000002        19.5                     -1.3468552202326956E-168 -3.7827935654761443E-23
1.6852500000000001        19.5                     4.936012505319457E-168   -4.192870559723547E-23
1.6837200000000003        19.5                     5.526043761294507E-168   -4.244231831865724E-23
1.6791300000000002        19.5                     -2.0255322485140116E-167 -4.7454688977575863E-23
1.6776000000000004        19.5                     -2.2673578121821264E-167 -4.8111810246711225E-23
1.6730100000000003        19.5                     8.312196131186756E-167   -5.427073829350502E-23
1.6714800000000005        19.5                     9.30332163684291E-167    -5.511391271974087E-23
1.6668900000000002        19.5                     -3.411190203306183E-166  -6.271918762595989E-23
1.6653600000000002        19.5                     -3.8174041154168394E-166 -6.380346585591399E-23
1.6607700000000003        19.5                     1.399940072102919E-165   -7.323825309223513E-23
1.6592400000000007        19.5                     1.5664273610757894E-165  -7.463485780597259E-23
1.6546500000000002        19.5                     -5.745477525786046E-165  -8.638967239204442E-23
1.6531200000000001        19.5                     -6.427828749117196E-165  -8.819075473769414E-23
1.6485299999999998        19.5                     2.3580652034226637E-164  -1.0289447141800914E-22
1.647                     19.5                     2.637728798243091E-164   -1.0521928710218722E-22
1.6424100000000001        19.5                     -9.678282628671953E-164  -1.2367927510852236E-22
1.6408800000000003        19.5                     -1.0824495906472383E-163 -1.2668221022211139E-22
1.6362900000000002        19.5                     3.972404063021366E-163   -1.4993630787416718E-22
1.6347600000000004        19.5                     4.442186685277244E-163   -1.5381731654110804E-22
1.6301700000000001        19.5                     -1.6305006434762904E-162 -1.8320117802790118E-22
1.6286400000000003        19.5                     -1.8230450714329707E-162 -1.8821936677650276E-22
1.62405                   19.5                     6.692691151710052E-162   -2.254537779782867E-22
1.62252                   19.5                     7.481856384217621E-162   -2.319450980097641E-22
1.6179299999999999        19.5                     -2.747215049386658E-161  -2.7924924528462917E-22
1.6164                    19.5                     -3.0706659802456707E-161 -2.876495501433768E-22
1.61181                   19.5                     1.1277073290110041E-160  -3.478880335109848E-22
1.6102800000000002        19.5                     1.2602796429537107E-160  -3.587631477842238E-22
1.6056899999999996        19.5                     -4.6292627433535504E-160 -4.356368854243534E-22
1.60416                   19.5                     -5.172640352782256E-160  -4.497218384903492E-22
1.59957                   19.5                     1.9003725472750313E-159  -5.480160790107844E-22
1.5980400000000001        19.5                     2.1230907008618364E-159  -5.662663238009294E-22
1.5934500000000003        19.5                     -7.80147931398017E-159   -6.921729824836042E-22
1.5919200000000007        19.5                     -8.714362025594465E-159  -7.158312915284894E-22
1.58733                   19.5                     3.202773868562206E-158   -8.77368037958043E-22
1.5858000000000003        19.5                     3.5769536758200513E-158  -9.080519115024286E-22
1.58121                   19.5                     -1.3148811472722193E-157 -1.1156072242688634E-21
1.5796800000000002        19.5                     -1.468255318195176E-157  -1.1554231414596104E-21
1.5750899999999999        19.5                     5.398305169867269E-157   -1.4224653861384023E-21
1.5735600000000003        19.5                     6.026987343550024E-157   -1.4741581893308887E-21
1.5689699999999998        19.5                     -2.216352736546076E-156  -1.8181582856409398E-21
1.56744                   19.5                     -2.474054638503436E-156  -1.885306552246453E-21
1.5628499999999996        19.5                     9.099774852681235E-156   -2.328938775704583E-21
1.5613200000000003        19.5                     1.0156135434406651E-155  -2.4162103877136477E-21
1.5567299999999995        19.5                     -3.736220811001507E-155  -2.988915338119293E-21
1.5552                    19.5                     -4.169248197239267E-155  -3.1024018490522256E-21
1.5506099999999998        19.5                     1.5340670682328627E-154  -3.8424209571549776E-21
1.5490800000000002        19.5                     1.711579054380563E-154   -3.990075095791017E-21
1.54449                   19.5                     -6.298916990930097E-154  -4.947098970344286E-21
1.5429600000000003        19.5                     -7.026612471142127E-154  -5.139307121664682E-21
1.5383699999999998        19.5                     2.586407503751544E-153   -6.37792281100927E-21
1.53684                   19.5                     2.8847271662028857E-153  -6.628254112565069E-21
1.53225                   19.5                     -1.062031378840413E-152  -8.23243187266778E-21
1.5307200000000003        19.5                     -1.1843309181985358E-152 -8.558618354443077E-21
1.52613                   19.5                     4.361007950412734E-152   -1.0637550525862277E-20
1.5246000000000004        19.5                     4.862401841901024E-152   -1.1062769406168579E-20
1.5200099999999999        19.5                     -1.7907928152752613E-151 -1.375846733314836E-20
1.5184800000000003        19.5                     -1.996355871233214E-151  -1.431301833213271E-20
1.51389                   19.5                     7.353812387331686E-151   -1.781019411943442E-20
1.5123600000000001        19.5                     8.196610270007169E-151   -1.8533692980229757E-20
1.5077699999999998        19.5                     -3.019870285326142E-150  -2.3072609258853215E-20
1.5062400000000002        19.5                     -3.3654232980814676E-150 -2.4016855532950373E-20
1.5016500000000002        19.5                     1.2401447395774585E-149  -2.991002853576066E-20
1.5001200000000003        19.5                     1.3818282608831727E-149  -3.1142753623022445E-20
1.49553                   19.5                     -5.092893674530547E-149  -3.879665587623448E-20
1.494                     19.5                     -5.6738425856689585E-149 -4.0406419572132957E-20
1.4894100000000001        19.5                     2.0915333550624804E-148  -5.0349665171983686E-20
1.4878800000000005        19.5                     2.329749402259362E-148   -5.245224976332169E-20
1.4832900000000002        19.5                     -8.589595981285054E-148  -6.537217896184723E-20
1.4817600000000002        19.5                     -9.566426198608896E-148  -6.811893462340008E-20
1.47717                   19.5                     3.5276723481191127E-147  -8.490907261516292E-20
1.4756400000000003        19.5                     3.928246279292556E-147   -8.849780341709642E-20
1.47105                   19.5                     -1.4488089265587502E-146 -1.103193855666801E-19
1.4695200000000002        19.5                     -1.613080466133071E-146  -1.1500854067463023E-19
1.46493                   19.5                     5.950331493509582E-146   -1.4337021710715096E-19
1.4634000000000003        19.5                     6.624019071731866E-146   -1.4949737808148804E-19
1.4588100000000002        19.5                     -2.443870519997803E-145  -1.8635839054115204E-19
1.4572800000000004        19.5                     -2.7201647626049705E-145 -1.9436433748656601E-19
1.45269                   19.5                     1.0037418157353308E-144  -2.4226797143934955E-19
1.45116                   19.5                     1.1170608137728492E-144  -2.5272798654335296E-19
1.44657                   19.5                     -4.1226118289944883E-144 -3.149740310002692E-19
1.44504                   19.5                     -4.5873964173438406E-144 -3.286385811398564E-19
1.44045                   19.5                     1.6932819843641086E-143  -4.095059901065626E-19
1.4389200000000002        19.5                     1.8839243055666096E-143  -4.2735355037818853E-19
1.43433                   19.5                     -6.954923510243954E-143  -5.323876345201436E-19
1.4328000000000003        19.5                     -7.736922186445299E-143  -5.556932093068951E-19
1.4282100000000002        19.5                     2.856679182783805E-142   -6.920756714528851E-19
1.4266800000000004        19.5                     3.177462897798415E-142   -7.224995863668834E-19
1.4220900000000005        19.5                     -1.1733739418810054E-141 -8.995247712056483E-19
1.420560000000001         19.5                     -1.3049687294253639E-141 -9.392276075778006E-19
1.4159700000000006        19.5                     4.819667551518412E-141   -1.1689147402416542E-18
1.4144400000000006        19.5                     5.35953310866747E-141    -1.2207059386573622E-18
1.4098500000000005        19.5                     -1.9797174862123895E-140 -1.5185852217854199E-18
1.4083200000000007        19.5                     -2.201207212115215E-140  -1.5861149862415118E-18
1.4037300000000004        19.5                     8.131949416134904E-140   -1.972235635604805E-18
1.4022000000000006        19.5                     9.040696534918752E-140   -2.0602424422464493E-18
1.3976100000000002        19.5                     -3.3403444511444024E-139 -2.5604635922318688E-18
1.3960800000000004        19.5                     -3.713211891904753E-139  -2.6750929920297416E-18
1.3914900000000001        19.5                     1.3721222158042373E-138  -3.3227345409547976E-18
1.3899600000000003        19.5                     1.5251211057631783E-138  -3.471949224922358E-18
1.3853700000000002        19.5                     -5.636365180227914E-138  -4.309899910096611E-18
1.3838400000000004        19.5                     -6.264199340550732E-138  -4.5040064023849726E-18
1.3792500000000003        19.5                     2.3153148768780737E-137  -5.5874116669566126E-18
1.3777200000000005        19.5                     2.572961752164833E-137   -5.8397358011175955E-18
1.3731300000000004        19.5                     -9.510983810914596E-137  -7.239419522180868E-18
1.3716000000000006        19.5                     -1.0568357540870184E-136 -7.567171377744816E-18
1.3670100000000003        19.5                     3.907015149423616E-136   -9.373984704098369E-18
1.3654800000000007        19.5                     4.340981708636594E-136   -9.799364348870829E-18
1.3608900000000004        19.5                     -1.604977151624101E-135  -1.2129703483438412E-17
1.3593600000000006        19.5                     -1.7830954461748058E-135 -1.268131218689325E-17
1.3547700000000005        19.5                     6.593204633968394E-135   -1.568410703306905E-17
1.3532400000000009        19.5                     7.324319642781338E-135   -1.6398745201409587E-17
1.3486500000000003        19.5                     -2.7084949878670143E-134 -2.0264294878837687E-17
1.3471200000000005        19.5                     -3.008610304612041E-134  -2.118924855439756E-17
1.3425300000000002        19.5                     1.1126616965852732E-133  -2.616037086440581E-17
1.3410000000000006        19.5                     1.2358632781516901E-133  -2.735631412362897E-17
1.33641                   19.5                     -4.570899812294325E-133  -3.37423876510934E-17
1.3348800000000005        19.5                     -5.076690030456152E-133  -3.5287059695403994E-17
1.3302900000000002        19.5                     1.8777750967222698E-132  -4.3481673553364735E-17
1.3287600000000006        19.5                     2.0854341824317742E-132  -4.547452798968401E-17
1.32417                   19.5                     -7.714159315722357E-132  -5.59776201507845E-17
1.3226400000000005        19.5                     -8.566784494662815E-132  -5.854569141310295E-17