% Model:              MSA_reference.mph
% Version:            COMSOL 6.3.0.290
% Date:               Apr 9 2026, 12:46
% Table:              Probe Table inner edge - 
% Time (min)                                      Molar concentration, is (mol/m^3), Point: (1.78, -4.5) Molar concentration, is (mol/m^3), Point: (1.78, 0.5) Molar concentration, is (mol/m^3), Point: (1.78, 5) Molar concentration, is (mol/m^3), Point: (1.78, 10) Molar concentration, is (mol/m^3), Point: (1.78, 15) Molar concentration, is (mol/m^3), Point: (1.78, 19.5) Molar concentration, is (mol/m^3), Point: (1.78, 24.5) Molar concentration, is (mol/m^3), Point: (0.28, -4.5) Molar concentration, is (mol/m^3), Point: (0.28, 0.5) Molar concentration, is (mol/m^3), Point: (0.28, 5) Molar concentration, is (mol/m^3), Point: (0.28, 10) Molar concentration, is (mol/m^3), Point: (0.28, 15) Molar concentration, is (mol/m^3), Point: (0.28, 19.5) Molar concentration, is (mol/m^3), Point: (0.28, 24.5) Molar concentration, is (mol/m^3), Point: (0.265, 0.5) Molar concentration, is (mol/m^3), Point: (0.265, 5) Molar concentration, is (mol/m^3), Point: (0.265, 10) Molar concentration, is (mol/m^3), Point: (0.265, 15) Molar concentration, is (mol/m^3), Point: (0.265, 19.5) Molar concentration, is (mol/m^3), Point: (0.255, 0.5) Molar concentration, is (mol/m^3), Point: (0.255, 5) Molar concentration, is (mol/m^3), Point: (0.255, 10) Molar concentration, is (mol/m^3), Point: (0.255, 15) Molar concentration, is (mol/m^3), Point: (0.255, 19.5) Molar concentration, is (mol/m^3), Point: (0.245, 0.5) Molar concentration, is (mol/m^3), Point: (0.245, 5) Molar concentration, is (mol/m^3), Point: (0.245, 10) Molar concentration, is (mol/m^3), Point: (0.245, 15) Molar concentration, is (mol/m^3), Point: (0.245, 19.5) Molar concentration, is (mol/m^3), Point: (0.155, 0.5) Molar concentration, is (mol/m^3), Point: (0.155, 5) Molar concentration, is (mol/m^3), Point: (0.155, 10) Molar concentration, is (mol/m^3), Point: (0.155, 15) Molar concentration, is (mol/m^3), Point: (0.155, 19.5) Molar concentration, is (mol/m^3), Point: (0.145, 0.5) Molar concentration, is (mol/m^3), Point: (0.145, 5) Molar concentration, is (mol/m^3), Point: (0.145, 10) Molar concentration, is (mol/m^3), Point: (0.145, 15) Molar concentration, is (mol/m^3), Point: (0.145, 19.5) Molar concentration, is (mol/m^3), Point: (0.01, 0.5) Molar concentration, is (mol/m^3), Point: (0.01, 5) Molar concentration, is (mol/m^3), Point: (0.01, 10) Molar concentration, is (mol/m^3), Point: (0.01, 15) Molar concentration, is (mol/m^3), Point: (0.01, 19.5)
0                                                 0                                                      0                                                     0                                                   0                                                    0                                                    0                                                      0                                                      1.419644192887888E-73                                  1.543922538545381E-21                                 1.3974107385890613E-21                              1.1296003451319612E-21                               1.3974107385897098E-21                               1.4448106449059589E-21                                 2.926605633257958E-73                                  1.583843134719648E-10                                  8.224843069905945E-11                                5.816196091663108E-12                                 8.224843069895964E-11                                 6.317021301301755E-11                                   2.3377428262354633E-4                                  2.60551499538558E-4                                  2.674241095924153E-4                                  2.6055149953850185E-4                                 2.590856591675445E-4                                    0.09936418341989231                                    0.0994276874520138                                   0.09947067180331408                                   0.09942768745200843                                   0.09946670430404664                                     0.09999999999999934                                    0.09999999999999656                                  0.09999999999999737                                   0.09999999999999865                                   0.09999999999998227                                     0.10000000000000261                                    0.09999999999999754                                  0.09999999999997977                                   0.10000000000001152                                   0.09999999999998617                                     0.09999999999999999                                   0.10000000000000547                                 0.0999999999999881                                   0.09999999999999659                                  0.09999999999999229
0.5                                               5.96110845406599E-63                                   2.525330059449538E-15                                 2.573780393968389E-15                               2.5737279185761294E-15                               2.573706239581053E-15                                2.525018372602311E-15                                  -8.579069000520886E-63                                 9.198367695249925E-55                                  0.02770441530056206                                   0.02703777627726581                                 0.02674793968248231                                  0.026559024588829156                                 0.026420985217166647                                   -1.346251559545499E-54                                 0.030580439660581885                                   0.02977717237923612                                  0.029425562554411585                                  0.029195518138368022                                  0.02902923754879842                                     0.03261932582102617                                    0.03171271156396786                                  0.03131415789974544                                   0.03105226564229309                                   0.030864233196820547                                    0.03609257435468011                                    0.03499908100372551                                  0.03451511915024291                                   0.034195221966140735                                  0.03396715371938018                                     0.09156659520194775                                    0.0867928915767508                                   0.08454579609531578                                   0.08299872372269934                                   0.08189767227694564                                     0.09719888586969413                                    0.09214477320129856                                  0.08969986670730766                                   0.08800737874820791                                   0.08679969320524654                                     0.09999999999999995                                   0.10000000000000549                                 0.09999999999974968                                  0.09999999967036181                                  0.0999999880156176
1                                                 8.564558540491218E-33                                  1.3125866013504977E-9                                 1.3924041846756598E-9                               1.3906813395573134E-9                                1.3896190964446228E-9                                1.3050892868932478E-9                                  8.505012972511939E-33                                  2.2081749063840176E-31                                 0.03157159802484947                                   0.030370878723734722                                0.02975603410313253                                  0.029332161863424012                                 0.028915559168818914                                   2.1929083808903803E-31                                 0.034245512562283115                                   0.032891707411496385                                 0.03220461767026345                                   0.03173037206009736                                   0.031281920658696505                                    0.036142437454838874                                   0.03467845629378051                                  0.033939543875055635                                  0.033428688165082876                                  0.032957657287987455                                    0.039378653466931306                                   0.03772406609380735                                  0.03689551203962984                                   0.03632142255962742                                   0.035811454923146566                                    0.09190367953396981                                    0.08715515526604777                                  0.08483290772345406                                   0.08319862562015477                                   0.08200665584961896                                     0.0972996238895874                                     0.092370161731024                                    0.08990546148348852                                   0.08816466579226968                                   0.08690132852744771                                     0.09999999999999995                                   0.10000000000000547                                 0.09999999999975759                                  0.0999999996816514                                   0.09999998841210528
1.5                                               9.814242248671166E-29                                  9.80353186995761E-8                                   1.0592767138696204E-7                               1.0562979657198115E-7                                1.0543988953730628E-7                                9.67925717699075E-8                                    9.730997475533284E-29                                  2.135941314047301E-27                                  0.034603347934376895                                  0.03329515145723774                                 0.032532726294667344                                 0.0319995903064868                                   0.03133815300759004                                    2.1177060529533406E-27                                 0.03718746003526871                                    0.03573276405514324                                  0.03490290876557076                                   0.03432229773798193                                   0.03363647907084229                                     0.03901544621483104                                    0.03745636339453002                                  0.03657889932658047                                   0.035964353149097655                                  0.035262093174149176                                    0.04212662877967142                                    0.04038859970166497                                  0.03942986783493943                                   0.038757522456458124                                  0.03802790863129556                                     0.0922750592403185                                     0.08773457594674808                                  0.08547811132329326                                   0.08388061439722969                                   0.08269481911628668                                     0.09741421344215458                                    0.09271826087752981                                  0.0903421116570378                                    0.08865448934336696                                   0.08742193772817117                                     0.09999999999999995                                   0.10000000000000549                                 0.09999999999976728                                  0.09999999969597026                                  0.09999998894292547
2                                                 6.939585991633403E-26                                  9.971402863102779E-7                                  1.0952242071275663E-6                               1.0901723625528708E-6                                1.086883896288631E-6                                 9.768068736923422E-7                                   6.86695567204206E-26                                   1.2470210545371277E-24                                 0.03688552859939008                                   0.03563289492985781                                 0.034795647356339984                                 0.034206457219205226                                 0.033326469052551363                                   1.2337494446144542E-24                                 0.03940178746064197                                    0.03800780015838158                                  0.03710843300089833                                   0.0364753583853471                                    0.03557967744109522                                     0.04117786484323184                                    0.03968325006357036                                  0.038740276534235424                                  0.038076017320307846                                  0.03717049053364804                                     0.04419507078329386                                    0.04252815755052107                                  0.041511086062562534                                  0.040793970792079456                                  0.039872891894703145                                    0.09255514972189617                                    0.0882031619283543                                   0.08601496521658109                                   0.08446136105605001                                   0.08328785823588436                                     0.09750065972135466                                    0.09299797466483464                                  0.09070280364152455                                   0.08906825218233555                                   0.08786861438061176                                     0.09999999999999995                                   0.10000000000000547                                 0.09999999999977466                                  0.0999999997070384                                   0.09999998935723987
2.5                                               3.029032324714384E-20                                  5.392887728724749E-6                                  6.017416711806134E-6                                5.971557733054031E-6                                 5.941010355629184E-6                                 5.216011050291656E-6                                   2.9296621116084863E-20                                 1.8427997545637006E-19                                 0.0386769826102848                                    0.03753519203083036                                 0.0366514853478368                                   0.03602723379182074                                  0.03494696598191871                                    1.7821835429134188E-19                                 0.04113651670813208                                    0.03985563231075846                                  0.03891399430200342                                   0.03824872676326898                                   0.03716102456638637                                     0.042869940375597354                                   0.04148996339767001                                  0.040507790871491756                                  0.03981346978843395                                   0.03872206354421888                                     0.04581093258046382                                    0.04426124024521476                                  0.043210362629217534                                  0.04246693013784479                                   0.04137080856448396                                     0.09277138139260285                                    0.08857708753896813                                  0.08644628300367795                                   0.08493032028265673                                   0.08376520905193652                                     0.09756738719813063                                    0.09322062287262912                                  0.09099184768635944                                   0.08940144963981544                                   0.08822868773506645                                     0.09999999999999995                                   0.10000000000000549                                 0.0999999999997804                                   0.0999999997156927                                   0.09999998968266492
3                                                 6.653079254641428E-19                                  1.6414228692882898E-5                                 1.850888350343785E-5                                1.8329827719699788E-5                                1.8209352226845575E-5                                1.5738466340909293E-5                                  6.420039200235049E-19                                  3.7446129912281016E-18                                 0.04011103863576311                                   0.03910722509234861                                 0.038193834640681545                                 0.037546960691193655                                 0.036281541575729236                                   3.612407920698609E-18                                  0.04252292615259331                                    0.041380327759152756                                 0.04041233149516344                                   0.03972673582567143                                   0.038461646726178064                                    0.044220992434450816                                   0.04297939658279572                                  0.041973264519327196                                  0.04126028870949132                                   0.03999719952015161                                     0.047099448202777644                                   0.04568816973793276                                  0.044617490010154345                                  0.04385830253520276                                   0.042600476289647395                                    0.09294233790873044                                    0.08888150201765684                                  0.08679918953892082                                   0.08531543538263606                                   0.08415552706940797                                     0.09762019187553919                                    0.0934015236443042                                   0.09122789571023174                                   0.08967453051804136                                   0.08852375732645684                                     0.09999999999999995                                   0.10000000000000547                                 0.09999999999978504                                  0.09999999972261966                                  0.0999999899441536
3.5                                               7.54062514544245E-18                                   3.76082855692821E-5                                   4.2804285132910886E-5                               4.231509061083787E-5                                 4.19837698511041E-5                                  3.579605441338052E-5                                   7.259838407709883E-18                                  3.942250358537279E-17                                  0.04128827957248135                                   0.040432908402515094                                0.039499677556771244                                 0.03883750162685015                                  0.03739989858121734                                    3.7936405268104486E-17                                 0.043659692931646114                                   0.04266461837823379                                  0.041679481123619445                                  0.04098045400023612                                   0.039550458285073226                                    0.04532800536966632                                    0.044233153184486465                                 0.043211807977839994                                  0.04248675041261533                                   0.041064059002514905                                    0.048154219468857416                                   0.04688820639765759                                  0.04580562868683084                                   0.04503667874970051                                   0.04362847837678089                                     0.09308150831355452                                    0.08913546118477429                                  0.08709467873642648                                   0.08563873413633608                                   0.08448165292396853                                     0.09766325541359011                                    0.09355221199973204                                  0.09142526752117844                                   0.08990345590518199                                   0.08877090488568104                                     0.09999999999999995                                   0.10000000000000547                                 0.09999999999978879                                  0.09999999972832019                                  0.09999999016002913
4                                                 5.861927417453528E-17                                  7.223354307347608E-5                                  8.292081308637348E-5                                8.180926023026243E-5                                 8.112511371529072E-5                                 6.831118132661914E-5                                   5.630724977045584E-17                                  2.8555256455693406E-16                                 0.04227802041410704                                   0.0415726641363793                                  0.04062556819209442                                  0.03995255369501536                                  0.03835425014650722                                    2.7410795314552814E-16                                 0.044614559476945065                                   0.04376782740114253                                  0.04277106673981768                                   0.04206275868755109                                   0.04047888071426591                                     0.046257406118249356                                   0.04530959488294492                                  0.0442782177463398                                    0.04354499600257266                                   0.04197336502589613                                     0.0490391427322625                                     0.047917813836021214                                 0.04682792792541041                                   0.04605272317912033                                   0.04450414877087734                                     0.09319784782767192                                    0.08935204854388198                                  0.08734734698212197                                   0.08591568959983363                                   0.08475971091511439                                     0.09769933472570677                                    0.09368057372484928                                  0.0915938667543576                                    0.09009936783750286                                   0.08898213592108864                                     0.09999999999999998                                   0.1000000000000055                                  0.09999999999979194                                  0.09999999973312884                                  0.09999999034259212
4.5                                               2.4425425631256426E-16                                 1.224371558949361E-4                                  1.4164366858991666E-4                               1.392060989468271E-4                                 1.3824063748531012E-4                                1.1516586963181219E-4                                  2.344848906965855E-16                                  1.1645282622574619E-15                                 0.04312006931463291                                   0.04256245854228821                                 0.041605631077637296                                 0.04092487891166741                                  0.03917641490631863                                    1.1169171395737841E-15                                 0.04542632350050846                                    0.04472516607371342                                  0.04372055613764406                                   0.04300582103893115                                   0.04127817038820773                                     0.04704717738653139                                    0.04624330278520118                                  0.04520540676048675                                   0.04446669315235963                                   0.04275589962994293                                     0.049790670513569744                                   0.048810365577339906                                 0.0477162295785912                                    0.046937125908119035                                  0.045257352861110565                                    0.09329637291502532                                    0.08953882689199018                                  0.08756571853930295                                   0.08615541190101353                                   0.08499922579570202                                     0.09772996614671842                                    0.09379115218825784                                  0.09173945496880995                                   0.09026879784001576                                   0.08916452598400139                                     0.09999999999999995                                   0.10000000000000549                                 0.09999999999979461                                  0.09999999973723461                                  0.09999999049882712
5                                                 9.146369284538673E-16                                  1.901992166498889E-4                                  2.2171881523895076E-4                               2.1781072489069546E-4                                2.1594564358011698E-4                                1.7805151170840908E-4                                  8.774030710625998E-16                                  4.248361707920756E-15                                  0.04385284906458903                                   0.04343787327150442                                 0.042473879294399046                                 0.04178732725834978                                  0.03989817105202863                                    4.07044898819115E-15                                   0.04613237311737226                                    0.04557141306023278                                  0.04456125504295021                                   0.043841848352611276                                  0.041979501013567545                                    0.04773388883359021                                    0.047068401677838906                                 0.04602609868124682                                   0.04528351641755407                                   0.04344233897394648                                     0.05044385603329962                                    0.04959875298840534                                  0.048502152220656194                                  0.04772054473972104                                   0.045917820280287416                                    0.09338186422634745                                    0.08970317144753374                                  0.08775815983380382                                   0.08636688751093981                                   0.08520960774644336                                     0.09775661040866669                                    0.09388836948949306                                  0.09186767469766663                                   0.09041817316534408                                   0.08932506314724402                                     0.09999999999999998                                   0.10000000000000549                                 0.09999999999979696                                  0.09999999974081916                                  0.09999999063546681