% Model:              MSA_reference.mph
% Version:            COMSOL 6.3.0.290
% Date:               Apr 9 2026, 12:41
% Table:              Probe Table inner edge - 
% Time (min)                                      Molar concentration, is (mol/m^3), Point: (1.78, -4.5) Molar concentration, is (mol/m^3), Point: (1.78, 0.5) Molar concentration, is (mol/m^3), Point: (1.78, 5) Molar concentration, is (mol/m^3), Point: (1.78, 10) Molar concentration, is (mol/m^3), Point: (1.78, 15) Molar concentration, is (mol/m^3), Point: (1.78, 19.5) Molar concentration, is (mol/m^3), Point: (1.78, 24.5) Molar concentration, is (mol/m^3), Point: (0.28, -4.5) Molar concentration, is (mol/m^3), Point: (0.28, 0.5) Molar concentration, is (mol/m^3), Point: (0.28, 5) Molar concentration, is (mol/m^3), Point: (0.28, 10) Molar concentration, is (mol/m^3), Point: (0.28, 15) Molar concentration, is (mol/m^3), Point: (0.28, 19.5) Molar concentration, is (mol/m^3), Point: (0.28, 24.5) Molar concentration, is (mol/m^3), Point: (0.265, 0.5) Molar concentration, is (mol/m^3), Point: (0.265, 5) Molar concentration, is (mol/m^3), Point: (0.265, 10) Molar concentration, is (mol/m^3), Point: (0.265, 15) Molar concentration, is (mol/m^3), Point: (0.265, 19.5) Molar concentration, is (mol/m^3), Point: (0.255, 0.5) Molar concentration, is (mol/m^3), Point: (0.255, 5) Molar concentration, is (mol/m^3), Point: (0.255, 10) Molar concentration, is (mol/m^3), Point: (0.255, 15) Molar concentration, is (mol/m^3), Point: (0.255, 19.5) Molar concentration, is (mol/m^3), Point: (0.245, 0.5) Molar concentration, is (mol/m^3), Point: (0.245, 5) Molar concentration, is (mol/m^3), Point: (0.245, 10) Molar concentration, is (mol/m^3), Point: (0.245, 15) Molar concentration, is (mol/m^3), Point: (0.245, 19.5) Molar concentration, is (mol/m^3), Point: (0.155, 0.5) Molar concentration, is (mol/m^3), Point: (0.155, 5) Molar concentration, is (mol/m^3), Point: (0.155, 10) Molar concentration, is (mol/m^3), Point: (0.155, 15) Molar concentration, is (mol/m^3), Point: (0.155, 19.5) Molar concentration, is (mol/m^3), Point: (0.145, 0.5) Molar concentration, is (mol/m^3), Point: (0.145, 5) Molar concentration, is (mol/m^3), Point: (0.145, 10) Molar concentration, is (mol/m^3), Point: (0.145, 15) Molar concentration, is (mol/m^3), Point: (0.145, 19.5) Molar concentration, is (mol/m^3), Point: (0.01, 0.5) Molar concentration, is (mol/m^3), Point: (0.01, 5) Molar concentration, is (mol/m^3), Point: (0.01, 10) Molar concentration, is (mol/m^3), Point: (0.01, 15) Molar concentration, is (mol/m^3), Point: (0.01, 19.5)
0                                                 0                                                      0                                                     0                                                   0                                                    0                                                    0                                                      0                                                      -7.981693744062736E-74                                 1.554037627721048E-21                                 1.3133231864204427E-21                              1.1296003451319548E-21                               1.3133231864208877E-21                               1.4568873734716821E-21                                 -8.94357831884837E-74                                  1.2501386241358163E-10                                 1.013197097062473E-10                                5.816196091662845E-12                                 1.0131970970615071E-10                                7.751055480392693E-11                                   2.523680663131066E-4                                   2.2105648627573573E-4                                2.6742410959237976E-4                                 2.2105648627568754E-4                                 2.6497321833750595E-4                                   0.09939188060172181                                    0.09942821011260136                                  0.09947067180331377                                   0.09942821011259713                                   0.09944304518838869                                     0.09999999999999849                                    0.09999999999999644                                  0.09999999999999709                                   0.09999999999999941                                   0.09999999999998295                                     0.10000000000000137                                    0.09999999999999729                                  0.09999999999998006                                   0.10000000000001892                                   0.0999999999999848                                      0.09999999999999988                                   0.10000000000000815                                 0.09999999999998822                                  0.0999999999999989                                   0.09999999999998987
0.5                                               3.5773877615544007E-63                                 2.5266857180373378E-15                                2.5737803485190838E-15                              2.5737279185758774E-15                               2.5737061980906506E-15                               2.5263756215084427E-15                                 -5.150082466965575E-63                                 5.636820276384971E-55                                  0.02770490124786668                                   0.027037707678652677                                0.026747939682482142                                 0.02655897358742468                                  0.026421716214218655                                   -8.307659497659498E-55                                 0.03058078032952816                                    0.029777161403744343                                 0.0294255625544124                                    0.029195521991194438                                  0.029029920283246375                                    0.03261964734450532                                    0.03171265939762359                                  0.03131415789974506                                   0.031052234035727478                                  0.030864869289408587                                    0.036092546650414725                                   0.03499930331600864                                  0.03451511915024282                                   0.03419543987333564                                   0.0339677560481739                                      0.09156501590611142                                    0.08679299020760055                                  0.08454579609531553                                   0.08299889445580731                                   0.08189719295045798                                     0.09719892830414101                                    0.09214443170068906                                  0.08969986670730794                                   0.08800730859269638                                   0.086799067005577                                       0.09999999999999987                                   0.10000000000000818                                 0.09999999999974979                                  0.09999999966378204                                  0.0999999880112081
1                                                 7.369077334704346E-33                                  1.3134952318241162E-9                                 1.3924040734480954E-9                               1.3906813395571767E-9                                1.3896190745374076E-9                                1.3059925734153727E-9                                  7.317844630500517E-33                                  1.862582656736019E-31                                  0.031575165382648734                                  0.03037079984941058                                 0.02975603410313235                                  0.02933211008389609                                  0.02891948729881237                                    1.8497055869973723E-31                                 0.034248846696048746                                   0.03289168310555269                                  0.03220461767026434                                   0.031730373891660446                                  0.031285714173740736                                    0.03614567356765631                                    0.034678391114468535                                 0.03393954387505522                                   0.03342865345294434                                   0.03296132951748389                                     0.039381403677066024                                   0.03772428069106938                                  0.036895512039629735                                  0.03632165380750908                                   0.03581495295628269                                     0.09190249010139874                                    0.08715525921583248                                  0.08483290772345381                                   0.08319880916582888                                   0.0820064824059491                                      0.09729972559863252                                    0.0923698269610994                                   0.0899054614834888                                    0.08816459497674545                                   0.08690074908546344                                     0.09999999999999987                                   0.10000000000000815                                 0.0999999999997577                                   0.09999999967529699                                  0.09999998840783722
1.5                                               8.585376064476769E-29                                  9.810146187129262E-8                                  1.059276543167541E-7                                1.0562979657197078E-7                                1.0543988675398981E-7                                9.685777369389568E-8                                   8.512628755432193E-29                                  1.837269549649041E-27                                  0.03460915526211916                                   0.033295070771932805                                0.03253272629466714                                  0.03199954050774622                                  0.03134410453588262                                    1.8216037451815046E-27                                 0.03719298027928795                                    0.035732733983373975                                 0.034902908765571734                                  0.03432229829240145                                   0.03364224482373814                                     0.039020819160581345                                   0.037456295390297586                                 0.036578899326580025                                  0.03596431927309521                                   0.03526769826186206                                     0.042131448394806856                                   0.04038879319184075                                  0.039429867834939326                                  0.038757740343580774                                  0.03803326392897645                                     0.09227416282517144                                    0.08773467444117097                                  0.08547811132329303                                   0.08388079031340806                                   0.08269489242080438                                     0.09741432516786003                                    0.09271794018139419                                  0.09034211165703808                                   0.0886544197329758                                    0.08742142687027085                                     0.09999999999999987                                   0.10000000000000818                                 0.09999999999976739                                  0.09999999968990349                                  0.09999998893885272
2                                                 6.173980667237235E-26                                  9.978079765834972E-7                                  1.095223934068357E-6                                1.0901723625527636E-6                                1.086883853574891E-6                                 9.77459623329077E-7                                    6.109475159924067E-26                                  1.0940732616072571E-24                                 0.036892772850992635                                  0.035632814581325674                                0.03479564735633976                                  0.03420640959253531                                  0.033333587933550256                                   1.0824540855421969E-24                                 0.03940870560062219                                    0.03800776721848332                                  0.03710843300089936                                   0.036475358145552125                                  0.0355865753084435                                      0.041184601134101065                                   0.0396831816485164                                   0.03874027653423496                                   0.03807598466018943                                   0.037177202014295675                                    0.044201209042620516                                   0.042528335029469753                                 0.041511086062562416                                  0.04079417596813395                                   0.039879305063205424                                    0.09255443482771561                                    0.08820325587036906                                  0.08601496521658084                                   0.0844615298099815                                    0.08328808282297176                                     0.09750076599186007                                    0.09299766587277199                                  0.0907028036415248                                    0.08906818411209017                                   0.08786815555166519                                     0.09999999999999987                                   0.10000000000000815                                 0.09999999999977476                                  0.09999999970119434                                  0.09999998935331915
2.5                                               2.885410928829519E-20                                  5.395976865019241E-6                                  6.01741445473254E-6                                 5.971557733053443E-6                                 5.941010007025457E-6                                 5.218987130552654E-6                                   2.790751320154898E-20                                  1.7433976069552318E-19                                 0.03868521914340153                                   0.037535112361882526                                0.03665148534783656                                  0.03602718794383061                                  0.03495488276124832                                    1.686051144176148E-19                                  0.041144398220460815                                   0.03985559761888175                                  0.038913994302004505                                  0.03824872598081422                                   0.03716869435616972                                     0.04287761490747376                                    0.041489895090260354                                 0.04050779087149126                                   0.03981343814912667                                   0.038729528196200465                                    0.04581797703659392                                    0.04426140603796252                                  0.043210362629217416                                  0.04246712553731781                                   0.04137793978420604                                     0.09277078965835969                                    0.08857717803163212                                  0.08644628300367771                                   0.08493048340596188                                   0.08376554016060841                                     0.09756748420273068                                    0.09322032375586323                                  0.0909918476863597                                    0.08940138298225671                                   0.08822826893651266                                     0.09999999999999987                                   0.10000000000000818                                 0.09999999999978051                                  0.09999999971002296                                  0.09999998967886396
3                                                 6.358703816765573E-19                                  1.6423410930569224E-5                                 1.8508875975900638E-5                               1.8329827719697985E-5                                1.8209351185361073E-5                                1.5747208831308457E-5                                  6.13601932289419E-19                                   3.557104919362437E-18                                  0.040119966610014546                                  0.0391071462021869                                  0.03819383464068131                                  0.03754691628199141                                  0.036290026347546904                                   3.4315549133964886E-18                                 0.042531477844790055                                   0.04138029197613758                                  0.040412331495164565                                  0.03972673466206796                                   0.03846986524980553                                     0.044229318893579055                                   0.04297932861810915                                  0.04197326451932668                                   0.04126025791443555                                   0.04000519911681453                                     0.04710712187268391                                    0.045688326771868175                                 0.04461749001015423                                   0.043858490315881085                                  0.04260811670932833                                     0.09294183122801493                                    0.08888158981413317                                  0.08679918953892057                                   0.08531559397017363                                   0.08415593675579176                                     0.09762027818069119                                    0.09340123251966248                                  0.09122789571023202                                   0.08967446511973942                                   0.08852337024024631                                     0.09999999999999987                                   0.10000000000000815                                 0.09999999999978515                                  0.09999999971708955                                  0.09999998994044913
3.5                                               7.228681161030057E-18                                  3.762834351727791E-5                                  4.280439195637032E-5                                4.23150906108337E-5                                  4.198377281907445E-5                                 3.5814854531659795E-5                                  6.959606298270112E-18                                  3.7585574416876385E-17                                 0.04129769779410784                                   0.04043283028720435                                 0.039499677556771                                    0.03883745839532793                                  0.03740880178636825                                    3.61694046623725E-17                                   0.043668719190592446                                   0.04266458189050532                                  0.041679481123620604                                  0.040980452557410174                                  0.039559080729611465                                    0.04533679300527427                                    0.0442330856555074                                   0.04321180797783947                                   0.042486720322240976                                  0.041072452217831325                                    0.048162338232932624                                   0.0468883566142003                                   0.04580562868683071                                   0.045036860427138226                                  0.043636493207346444                                    0.0930810620439798                                     0.08913554679872719                                  0.08709467873642623                                   0.08563888896443704                                   0.08448212242669283                                     0.09766333088738352                                    0.09355192761833454                                  0.0914252675211787                                    0.08990339162182617                                   0.0887705430742675                                      0.09999999999999987                                   0.10000000000000815                                 0.0999999999997889                                   0.09999999972290505                                  0.0999999901564045
4                                                 5.634911433245586E-17                                  7.226934922162847E-5                                  8.295716584886001E-5                                8.180926023025437E-5                                 8.112665180776184E-5                                 6.834437996072271E-5                                   5.412769234212659E-17                                  2.731521536224579E-16                                  0.04228779309675021                                   0.04157258675516076                                 0.040625568192094175                                 0.03995251144663459                                  0.0383634685949244                                     2.6221147317164747E-16                                 0.044623928515179746                                   0.04376779044122436                                  0.04277106673981887                                   0.042062757031513326                                  0.04048780726077428                                     0.04626652654825663                                    0.045309527816499245                                 0.044278217746339256                                  0.04354496650993693                                   0.04198205450809351                                     0.04904758283690535                                    0.04791795855767607                                  0.04682792792541028                                   0.046052899830720646                                  0.04451244526967477                                     0.09319744578170482                                    0.0893521323399595                                   0.08734734698212172                                   0.08591584123780949                                   0.08476022707520925                                     0.09769939986653403                                    0.09368029514612912                                  0.09159386675435786                                   0.09009930454459139                                   0.08898179471087071                                     0.09999999999999987                                   0.1000000000000082                                  0.09999999999979203                                  0.09999999972781073                                  0.09999999033903514
4.5                                               2.3497655325701026E-16                                 1.2249340056864064E-4                                 1.417403209064209E-4                                1.3920609894681342E-4                                1.3832381736497568E-4                                1.1521771625804247E-4                                  2.2558481209879405E-16                                 1.1152701810449836E-15                                 0.04313009711006104                                   0.04256238184626768                                 0.04160563107763704                                  0.0409248374932425                                   0.03918587027292739                                    1.0697132278469126E-15                                 0.045435939004076296                                   0.044725128800874925                                 0.04372055613764527                                   0.04300581921745546                                   0.04128732529232041                                     0.04705653684855317                                    0.04624323618322727                                  0.0452054067604862                                    0.04446666417156437                                   0.042764811514132965                                    0.04979934163338982                                    0.04881050579840364                                  0.04771622957859107                                   0.04693729836475987                                   0.045265860666106446                                    0.09329600343758254                                    0.08953890915389214                                  0.08756571853930271                                   0.08615556080101895                                   0.08499977882239462                                     0.09773002167717285                                    0.0937908786543296                                   0.09173945496881021                                   0.09026873543001217                                   0.08916420197918373                                     0.09999999999999987                                   0.10000000000000818                                 0.09999999999979471                                  0.09999999973199941                                  0.09999999049532812
5                                                 8.807170137114046E-16                                  1.9028126066149043E-4                                 2.2185695713790977E-4                               2.1781072489067402E-4                                2.160571985217532E-4                                 1.7812678213435101E-4                                  8.448971913187969E-16                                  4.0742097820650174E-15                                 0.043863066835004356                                  0.043437797210483534                                0.04247387929439878                                  0.04178728655730025                                  0.03990780906013317                                    3.903782465519562E-15                                  0.046142172036956884                                   0.045571375571625834                                 0.04456125504295144                                   0.043841846397319716                                  0.04198883181923646                                     0.047743426011145625                                   0.047068335525417955                                 0.046026098681246255                                  0.04528348788393819                                   0.04345142211736041                                     0.050452699142534856                                   0.04959888940218274                                  0.048502152220656056                                  0.047720713598535                                     0.04592649068494609                                     0.09338151981323017                                    0.08970325238224017                                  0.08775815983380358                                   0.08636703401102382                                   0.0852101900145709                                      0.09775665716485303                                    0.09388810042319379                                  0.09186767469766688                                   0.09041811155023242                                   0.0893247532214191                                      0.09999999999999987                                   0.10000000000000818                                 0.09999999999979708                                  0.09999999973565635                                  0.09999999063201863