% Model:              MSA_reference.mph
% Version:            COMSOL 6.3.0.290
% Date:               Apr 9 2026, 14:00
% Table:              Probe Table inner edge - 
% Time (min)                                      Molar concentration, is (mol/m^3), Point: (1.78, -4.5) Molar concentration, is (mol/m^3), Point: (1.78, 0.5) Molar concentration, is (mol/m^3), Point: (1.78, 5) Molar concentration, is (mol/m^3), Point: (1.78, 10) Molar concentration, is (mol/m^3), Point: (1.78, 15) Molar concentration, is (mol/m^3), Point: (1.78, 19.5) Molar concentration, is (mol/m^3), Point: (1.78, 24.5) Molar concentration, is (mol/m^3), Point: (0.28, -4.5) Molar concentration, is (mol/m^3), Point: (0.28, 0.5) Molar concentration, is (mol/m^3), Point: (0.28, 5) Molar concentration, is (mol/m^3), Point: (0.28, 10) Molar concentration, is (mol/m^3), Point: (0.28, 15) Molar concentration, is (mol/m^3), Point: (0.28, 19.5) Molar concentration, is (mol/m^3), Point: (0.28, 24.5) Molar concentration, is (mol/m^3), Point: (0.265, 0.5) Molar concentration, is (mol/m^3), Point: (0.265, 5) Molar concentration, is (mol/m^3), Point: (0.265, 10) Molar concentration, is (mol/m^3), Point: (0.265, 15) Molar concentration, is (mol/m^3), Point: (0.265, 19.5) Molar concentration, is (mol/m^3), Point: (0.255, 0.5) Molar concentration, is (mol/m^3), Point: (0.255, 5) Molar concentration, is (mol/m^3), Point: (0.255, 10) Molar concentration, is (mol/m^3), Point: (0.255, 15) Molar concentration, is (mol/m^3), Point: (0.255, 19.5) Molar concentration, is (mol/m^3), Point: (0.245, 0.5) Molar concentration, is (mol/m^3), Point: (0.245, 5) Molar concentration, is (mol/m^3), Point: (0.245, 10) Molar concentration, is (mol/m^3), Point: (0.245, 15) Molar concentration, is (mol/m^3), Point: (0.245, 19.5) Molar concentration, is (mol/m^3), Point: (0.155, 0.5) Molar concentration, is (mol/m^3), Point: (0.155, 5) Molar concentration, is (mol/m^3), Point: (0.155, 10) Molar concentration, is (mol/m^3), Point: (0.155, 15) Molar concentration, is (mol/m^3), Point: (0.155, 19.5) Molar concentration, is (mol/m^3), Point: (0.145, 0.5) Molar concentration, is (mol/m^3), Point: (0.145, 5) Molar concentration, is (mol/m^3), Point: (0.145, 10) Molar concentration, is (mol/m^3), Point: (0.145, 15) Molar concentration, is (mol/m^3), Point: (0.145, 19.5) Molar concentration, is (mol/m^3), Point: (0.01, 0.5) Molar concentration, is (mol/m^3), Point: (0.01, 5) Molar concentration, is (mol/m^3), Point: (0.01, 10) Molar concentration, is (mol/m^3), Point: (0.01, 15) Molar concentration, is (mol/m^3), Point: (0.01, 19.5)
0                                                 0                                                      0                                                     0                                                   0                                                    0                                                    0                                                      0                                                      -1.689665887867889E-38                                 5.039609234235173E-25                                 4.263841306469131E-25                               4.214703925140298E-25                                4.265898941926538E-25                                3.467856204579065E-25                                  -1.6782247790692777E-38                                2.3922263035268215E-12                                 2.3902471391877298E-12                               2.3911831536169366E-12                                2.3902932036806586E-12                                2.3905209906780016E-12                                  3.4097786341558154E-5                                  3.407447304057958E-5                                 3.4086051745453935E-5                                 3.407498809997845E-5                                  3.4077667298136194E-5                                   0.09999708604525913                                    0.09999608100314158                                  0.09999904300700974                                   0.09999606783954239                                   0.09999707342380582                                     0.09999999999999999                                    0.09999999999999995                                  0.10000000000000012                                   0.10000000000000014                                   0.10000000000000048                                     0.10000000000000002                                    0.1                                                  0.09999999999999981                                   0.0999999999999999                                    0.09999999999999984                                     0.1                                                   0.1                                                 0.10000000000000005                                  0.09999999999999973                                  0.10000000000000081
0.5                                               2.2687491561435043E-31                                 2.369932385632678E-15                                 2.5535920034927355E-15                              2.5535422388597225E-15                               2.5535176800183664E-15                               2.369675159240723E-15                                  2.3417667859775056E-31                                 -6.508754511264669E-18                                 0.027754778801880722                                  0.02703439055466213                                 0.026740928077635253                                 0.02655024622744219                                  0.0264532007418694                                     -1.3445603272085206E-17                                0.030629689065515983                                   0.0297783793264177                                   0.02942237024503056                                   0.029189706314506535                                  0.029056726489758565                                    0.03269989686975814                                    0.031714238562870284                                 0.03131060161384997                                   0.03104580695758421                                   0.030916127747946682                                    0.036192497506734554                                   0.034992505036722715                                 0.03450286357701664                                   0.03417979518935571                                   0.03403141370394683                                     0.091780692959858                                      0.08678342150089982                                  0.08450865460483753                                   0.08294417087549946                                   0.0818903515201224                                      0.09746847924199237                                    0.09217107600955421                                  0.08968535372059981                                   0.08796919264434319                                   0.08679113587109372                                     0.09999999999999999                                   0.1                                                 0.10000000000061404                                  0.0999999998476869                                   0.09999999132929002
1                                                 -1.1559111601207084E-26                                1.220767869894552E-9                                  1.3640406138740783E-9                               1.3623554883144106E-9                                1.3613191862607655E-9                                1.2137443667059853E-9                                  -1.449496072396992E-26                                 -7.460750824600203E-18                                 0.0315673770395186                                    0.03036970712426333                                 0.029747052514433537                                 0.029318498833360532                                 0.02885224332028672                                    -1.1819760754933577E-17                                0.03424281194673405                                    0.03289499066179133                                  0.032199248616160366                                  0.03171939138682137                                   0.031216036283052112                                    0.03617206361901754                                    0.0346820998352602                                   0.03393378823217948                                   0.03341696721462917                                   0.03291640396609131                                     0.03943035839572004                                    0.037719500752908336                                 0.036880680079894805                                  0.03630012695174581                                   0.03578420611888842                                     0.0921133614943552                                     0.08714749928404553                                  0.08479558120693492                                   0.08314182284718996                                   0.08198936713719322                                     0.09756510352701378                                    0.09239824063024973                                  0.08989210693431449                                   0.08812635895277372                                   0.0868940222682028                                      0.09999999999999999                                   0.09999999999999999                                 0.09999999999993088                                  0.09999999981474612                                  0.09999999139027302
1.5                                               -9.950988722146123E-24                                 1.0865059262247966E-7                                 1.2784984907393526E-7                               1.2739236335481564E-7                                1.27097709331488E-7                                  1.0683225011361007E-7                                  -7.644488408353058E-24                                 -6.272638322060963E-18                                 0.03455888385473998                                   0.033296889671740215                                0.03252424875654507                                  0.03198467923512997                                  0.03121928946276628                                    -4.267589561933767E-18                                 0.037145541952389775                                   0.03573850401868499                                  0.034897660350464044                                  0.03430974337863346                                   0.033516299734719986                                    0.03900628476488989                                    0.03746234756612479                                  0.03657320188195313                                   0.03595101268886868                                   0.03516736683933935                                     0.042141146553698626                                   0.04038675941019976                                  0.039415503908256815                                  0.03873500969371649                                   0.037949206850968246                                    0.09246348760065118                                    0.08772629494532791                                  0.08544151779107968                                   0.08382494119229132                                   0.08267220173418041                                     0.09765606957135338                                    0.09274360170373974                                  0.09032848062220594                                   0.08861687149330764                                   0.08741461703238586                                     0.09999999999999999                                   0.09999999999999999                                 0.09999999999993159                                  0.09999999982112164                                  0.09999999174536842
2                                                 -2.614298656258145E-22                                 1.0968682422233957E-6                                 1.1530517032335309E-6                               1.1473298847680827E-6                                1.1436004463278114E-6                                1.0666488078465228E-6                                  6.03429648507518E-23                                   -8.068372648862627E-18                                 0.036813484116836395                                  0.0356361312988074                                  0.034787669039853114                                 0.03419130391156983                                  0.03317803067120364                                    -6.915020558974456E-18                                 0.03933328774672411                                    0.03801479492325575                                  0.037103510644034284                                  0.036462456917217716                                  0.03543104764350999                                     0.04114258180372734                                    0.039690480150693985                                 0.03873494878467745                                   0.03806240044583406                                   0.03704805125548041                                     0.0441849603604872                                     0.04252803852996756                                  0.041497616527409346                                  0.040771735290517586                                  0.03976811487078658                                     0.09274301326216963                                    0.08819721732612466                                  0.08598087952603244                                   0.08440840385819688                                   0.08326411580392776                                     0.09774148026979343                                    0.09302454682436959                                  0.090691009018351                                     0.0890328982879196                                    0.08786280142332807                                     0.09999999999999999                                   0.09999999999999999                                 0.09999999999994125                                  0.0999999998296926                                   0.09999999209091003
2.5                                               3.460634073089115E-21                                  5.676027498579541E-6                                  5.927447294195566E-6                                5.883279775636262E-6                                 5.853983013042109E-6                                 5.493512835730873E-6                                   4.3400345336638E-22                                    -7.70220162043172E-18                                  0.03858108786603513                                   0.03753596549866251                                 0.036640749177641284                                 0.03600909839570914                                  0.0347761132967603                                     -6.0758750191887565E-18                                0.041044898153611384                                   0.03986003135220504                                  0.03890623500818835                                   0.038232816064949306                                  0.03699088298970635                                     0.04281179556326054                                    0.0414946344694945                                   0.04049970380382628                                   0.039796941546143855                                  0.038578661818978705                                    0.045778931487512706                                   0.044259002618663695                                 0.043194617070551965                                  0.042442289775853605                                  0.04124631678314154                                     0.09294627745612188                                    0.08856991046019708                                  0.08641209071111453                                   0.08487784602844214                                   0.08373949745730107                                     0.09779329258218195                                    0.09324485720607566                                  0.0909793490748288                                    0.0893662089028106                                    0.08822271885009449                                     0.09999999999999999                                   0.09999999999999998                                 0.09999999999994133                                  0.09999999983271743                                  0.09999999229546042
3                                                 -3.313892738156228E-20                                 1.7326550613375115E-5                                 1.826137909884286E-5                                1.8054497232244006E-5                                1.7936063363005085E-5                                1.6622346128329223E-5                                  -6.052980994634546E-21                                 -8.876968431288496E-18                                 0.039997327790525                                     0.03910565885008434                                 0.03818056276494005                                  0.03752613735414643                                  0.03609435338258222                                    -7.186560743398966E-18                                 0.042413935212342595                                   0.04138227718005874                                  0.040401970637599045                                  0.03970811156512778                                   0.03827584528514811                                     0.04414552846177638                                    0.04298163994829916                                  0.04196263340618745                                   0.041241121315914134                                  0.039838511618966434                                    0.04705062845867972                                    0.04568383098861764                                  0.04459957142241352                                   0.04383141685763431                                   0.04246159683560245                                     0.09310083114920435                                    0.08887185044303679                                  0.08676400328793636                                   0.08526268777069779                                   0.08412786327525543                                     0.09782705101078189                                    0.09342211742692139                                  0.09121376115656574                                   0.0896386074610181                                    0.08851709502295368                                     0.09999999999999999                                   0.09999999999999998                                 0.10000000000005818                                  0.09999999983445158                                  0.09999999241396948
3.5                                               4.538180629305655E-20                                  3.9342352655524666E-5                                 4.7255337229186586E-5                               4.442272173963844E-5                                 4.304914609115945E-5                                 3.7435108176711644E-5                                  2.462206241669683E-20                                  -7.842856283375827E-18                                 0.041161261582906415                                  0.040429139085704544                                0.03948406899092555                                  0.03881423228289184                                  0.03720033567681965                                    -6.694305621529938E-18                                 0.04353778223794043                                    0.04266428357320205                                  0.04166673395067241                                   0.040959364451605605                                  0.03935279926592031                                     0.04523967163134751                                    0.0442331368561681                                   0.04319884032458309                                   0.04246517973849326                                   0.04089377056986826                                     0.048092986573996035                                   0.04688188578435344                                  0.045785680539787973                                  0.045007713007414074                                  0.04347866189059942                                     0.09323685428606404                                    0.08912535836176985                                  0.08705948216644799                                   0.08558626636688912                                   0.08445282683570932                                     0.09786672354681017                                    0.09357186802201015                                  0.09141086911904132                                   0.08986766999432415                                   0.0887642096732888                                      0.09999999999999999                                   0.10000000000000017                                 0.10000000000207342                                  0.09999999989743924                                  0.0999999928383018
4                                                 5.377930550685369E-18                                  7.505678844271526E-5                                  9.592674811689033E-5                                9.4058688209866E-5                                   9.278608612356586E-5                                 7.090461642892384E-5                                   1.2727618084557346E-18                                 -2.7362346561297952E-18                                0.04214252069592115                                   0.04156770236851438                                 0.04060860054412761                                  0.03992779763497916                                  0.038145805720772454                                   -5.058539069358129E-18                                 0.04448465982923423                                    0.04376625785602873                                  0.042756932051939686                                  0.042040174164428734                                  0.04027274919044495                                     0.04616124726577167                                    0.045308384115046965                                 0.044263913436212575                                  0.043521987399578896                                  0.04179478454208871                                     0.04897071788852168                                    0.0479105679070892                                   0.04680691606183335                                   0.04602259837362404                                   0.044346544507468014                                    0.09336694198226304                                    0.0893449657838088                                   0.08731425146407507                                   0.08586504408341453                                   0.0847312908299994                                      0.09791907662861915                                    0.09370350078104688                                  0.09158173607093438                                   0.09006555051197901                                   0.08897696059989217                                     0.09999999999999999                                   0.10000000000000182                                 0.10000000002074477                                  0.10000000046775082                                  0.09999999570387452
4.5                                               4.1095625881201404E-17                                 1.2619733286527802E-4                                 1.627760082131834E-4                                1.6000087310643826E-4                                1.5817022069880565E-4                                1.1848635591032018E-4                                  9.50172217359821E-18                                   2.0852394876099558E-16                                 0.04298222574043861                                   0.04255893462859907                                 0.041589711982361506                                 0.040900933949043206                                 0.03896320643458558                                    4.4513734402645157E-17                                 0.045294673175856656                                   0.04472505358380294                                  0.04370747424764161                                   0.042984059391448184                                  0.041067611179133864                                    0.046949514953894364                                   0.046243621327068204                                 0.045192216485502056                                  0.044444566996498305                                  0.04257302166238239                                     0.049721463005552434                                   0.04880494055192848                                  0.047696591427969656                                  0.04690813625564151                                   0.04509584411049143                                     0.09348140366965654                                    0.08953817341005464                                  0.08753739867894003                                   0.08610896508349733                                   0.08497366134875399                                     0.09796729019051026                                    0.09382079440292142                                  0.09173231523577939                                   0.09023937935387272                                   0.08916318989026494                                     0.1                                                   0.10000000000000758                                 0.10000000010296987                                  0.10000000297175507                                  0.10000000764374484
5                                                 2.1111143832851298E-16                                 1.880321982772366E-4                                  2.1807153235742154E-4                               2.160047321941241E-4                                 2.1418106441185077E-4                                1.764021225873869E-4                                   5.74829710509872E-17                                   1.4473501281453244E-15                                 0.04371454682706085                                   0.04343661116383728                                 0.042459844364393436                                 0.04176503674977437                                  0.03968236312335955                                    3.622357889919096E-16                                  0.046000395031664254                                   0.045573496617519554                                 0.044550008719086674                                  0.04382171091095355                                   0.04176658139190971                                     0.04763577157823284                                    0.047070902624689576                                 0.04601474784442199                                   0.04526302760070174                                   0.043257157538377645                                    0.05037414224780954                                    0.04959560220613417                                  0.04848447393136888                                   0.047693329035497486                                  0.04575424447233064                                     0.09355138948593128                                    0.08970024761343676                                  0.08772914030825624                                   0.08632041116414574                                   0.0851835330952473                                      0.09797379962777467                                    0.0939140744858559                                   0.09185874151235417                                   0.09038787219274932                                   0.08932315642782429                                     0.09999999999999999                                   0.10000000000000009                                 0.10000000000236096                                  0.09999999995291417                                  0.09999999350356163