% Model:              MSA_reference.mph
% Version:            COMSOL 6.3.0.290
% Date:               Apr 9 2026, 12:51
% Table:              Probe Table inner edge - 
% Time (min)                                      Molar concentration, is (mol/m^3), Point: (1.78, -4.5) Molar concentration, is (mol/m^3), Point: (1.78, 0.5) Molar concentration, is (mol/m^3), Point: (1.78, 5) Molar concentration, is (mol/m^3), Point: (1.78, 10) Molar concentration, is (mol/m^3), Point: (1.78, 15) Molar concentration, is (mol/m^3), Point: (1.78, 19.5) Molar concentration, is (mol/m^3), Point: (1.78, 24.5) Molar concentration, is (mol/m^3), Point: (0.28, -4.5) Molar concentration, is (mol/m^3), Point: (0.28, 0.5) Molar concentration, is (mol/m^3), Point: (0.28, 5) Molar concentration, is (mol/m^3), Point: (0.28, 10) Molar concentration, is (mol/m^3), Point: (0.28, 15) Molar concentration, is (mol/m^3), Point: (0.28, 19.5) Molar concentration, is (mol/m^3), Point: (0.28, 24.5) Molar concentration, is (mol/m^3), Point: (0.265, 0.5) Molar concentration, is (mol/m^3), Point: (0.265, 5) Molar concentration, is (mol/m^3), Point: (0.265, 10) Molar concentration, is (mol/m^3), Point: (0.265, 15) Molar concentration, is (mol/m^3), Point: (0.265, 19.5) Molar concentration, is (mol/m^3), Point: (0.255, 0.5) Molar concentration, is (mol/m^3), Point: (0.255, 5) Molar concentration, is (mol/m^3), Point: (0.255, 10) Molar concentration, is (mol/m^3), Point: (0.255, 15) Molar concentration, is (mol/m^3), Point: (0.255, 19.5) Molar concentration, is (mol/m^3), Point: (0.245, 0.5) Molar concentration, is (mol/m^3), Point: (0.245, 5) Molar concentration, is (mol/m^3), Point: (0.245, 10) Molar concentration, is (mol/m^3), Point: (0.245, 15) Molar concentration, is (mol/m^3), Point: (0.245, 19.5) Molar concentration, is (mol/m^3), Point: (0.155, 0.5) Molar concentration, is (mol/m^3), Point: (0.155, 5) Molar concentration, is (mol/m^3), Point: (0.155, 10) Molar concentration, is (mol/m^3), Point: (0.155, 15) Molar concentration, is (mol/m^3), Point: (0.155, 19.5) Molar concentration, is (mol/m^3), Point: (0.145, 0.5) Molar concentration, is (mol/m^3), Point: (0.145, 5) Molar concentration, is (mol/m^3), Point: (0.145, 10) Molar concentration, is (mol/m^3), Point: (0.145, 15) Molar concentration, is (mol/m^3), Point: (0.145, 19.5) Molar concentration, is (mol/m^3), Point: (0.01, 0.5) Molar concentration, is (mol/m^3), Point: (0.01, 5) Molar concentration, is (mol/m^3), Point: (0.01, 10) Molar concentration, is (mol/m^3), Point: (0.01, 15) Molar concentration, is (mol/m^3), Point: (0.01, 19.5)
0                                                 0                                                      0                                                     0                                                   0                                                    0                                                    0                                                      0                                                      1.4196441928885874E-73                                 1.543922538545386E-21                                 1.3974107385890145E-21                              1.1296003451319426E-21                               1.3974107385897106E-21                               1.4448106449059696E-21                                 2.9266056332561926E-73                                 1.583843134719991E-10                                  8.224843069905093E-11                                5.816196091662143E-12                                 8.224843069896643E-11                                 6.3170213013014E-11                                     2.337742826235448E-4                                   2.6055149953854533E-4                                2.67424109592414E-4                                   2.605514995384998E-4                                  2.5908565916753137E-4                                   0.09936417091913903                                    0.09942768745201366                                  0.09947067180331425                                   0.09942768745200886                                   0.09946670038240245                                     0.09999999999999934                                    0.09999999999999655                                  0.0999999999999977                                    0.09999999999999867                                   0.09999999999998223                                     0.10000000000000261                                    0.09999999999999754                                  0.09999999999998031                                   0.10000000000001184                                   0.09999999999998616                                     0.09999999999999996                                   0.10000000000000547                                 0.09999999999998771                                  0.09999999999999655                                  0.09999999999999228
0.5                                               5.96110845406546E-63                                   2.5253300594489684E-15                                2.5737803939680663E-15                              2.5737279185760498E-15                               2.573706239580732E-15                                2.5250183726023062E-15                                 -8.579069000516058E-63                                 9.198367695249295E-55                                  0.027704415300562366                                  0.02703777627726528                                 0.026747939682481958                                 0.02655902458882864                                  0.026420985217166827                                   -1.3462515595453447E-54                                0.030580439660581892                                   0.02977717237923612                                  0.029425562554411425                                  0.029195518138368022                                  0.02902923754879882                                     0.032619325821026175                                   0.031712711563967856                                 0.03131415789974527                                   0.031052265642293093                                  0.030864233196820537                                    0.03609257477065825                                    0.034999081003725487                                 0.03451511915024297                                   0.03419522196614089                                   0.033967153835551295                                    0.09156659570734299                                    0.08679289157675077                                  0.08454579609531605                                   0.08299872372269937                                   0.08189767244558543                                     0.0971988477310501                                     0.09214477320129855                                  0.08969986670730815                                   0.08800737874820821                                   0.0867996931135431                                      0.09999999999999994                                   0.10000000000000549                                 0.09999999999974928                                  0.09999999967036086                                  0.09999998801402521
1                                                 8.564558540490983E-33                                  1.3125866013501968E-9                                 1.3924041846754842E-9                               1.39068133955727E-9                                  1.3896190964444474E-9                                1.305089286893246E-9                                   8.505012972510286E-33                                  2.208174906384037E-31                                  0.031571598024849816                                  0.03037087872373412                                 0.02975603410313215                                  0.02933216186342344                                  0.02891555916881911                                    2.192908380890141E-31                                  0.034245512562283136                                   0.03289170741149638                                  0.03220461767026327                                   0.031730372060097364                                  0.03128192065869694                                     0.03614243745483889                                    0.0346784562937805                                   0.03393954387505545                                   0.033428688165082876                                  0.03295765728798745                                     0.03937865387331941                                    0.03772406609380732                                  0.036895512039629895                                  0.03632142255962758                                   0.035811455050338774                                    0.09190368002767242                                    0.08715515526604772                                  0.08483290772345434                                   0.08319862562015481                                   0.08200665603303256                                     0.09729958746237673                                    0.09237016173102397                                  0.089905461483489                                     0.08816466579226996                                   0.08690132842589951                                     0.09999999999999994                                   0.10000000000000549                                 0.0999999999997572                                   0.09999999968165046                                  0.09999998841056396
1.5                                               9.814242248670923E-29                                  9.803531869955357E-8                                  1.0592767138694864E-7                               1.0562979657197785E-7                                1.0543988953729295E-7                                9.679257176990732E-8                                   9.730997475531546E-29                                  2.135941314047327E-27                                  0.034603347934377277                                  0.033295151457237084                                0.03253272629466693                                  0.03199959030648618                                  0.03133815300759025                                    2.1177060529531196E-27                                 0.037187460035268745                                   0.03573276405514324                                  0.034902908765570576                                  0.03432229773798193                                   0.033636479070842766                                    0.03901544621483105                                    0.03745636339453002                                  0.03657889932658027                                   0.035964353149097655                                  0.035262093174149176                                    0.042126629155470344                                   0.04038859970166494                                  0.0394298678349395                                    0.038757522456458304                                  0.03802790875270695                                     0.09227505970874869                                    0.08773457594674806                                  0.08547811132329354                                   0.08388061439722971                                   0.08269481929315486                                     0.09741417884434007                                    0.09271826087752978                                  0.09034211165703829                                   0.08865448934336724                                   0.08742193761451109                                     0.09999999999999994                                   0.10000000000000549                                 0.09999999999976687                                  0.09999999969596937                                  0.09999998894145488
2                                                 6.939585991633248E-26                                  9.971402863100485E-7                                  1.0952242071274276E-6                               1.0901723625528365E-6                                1.0868838962884934E-6                                9.768068736923408E-7                                   6.866955672040945E-26                                  1.2470210545371473E-24                                 0.03688552859939047                                   0.03563289492985711                                 0.034795647356339526                                 0.03420645721920457                                  0.033326469052551586                                   1.2337494446143315E-24                                 0.039401787460642                                      0.03800780015838158                                  0.037108433000898125                                  0.03647535838534711                                   0.03557967744109573                                     0.041177864843231854                                   0.039683250063570354                                 0.038740276534235216                                  0.038076017320307846                                  0.037170490533648036                                    0.04419507113632069                                    0.04252815755052103                                  0.04151108606256261                                   0.040793970792079644                                  0.03987289201011979                                     0.09255515017119255                                    0.08820316192835427                                  0.08601496521658133                                   0.08446136105605004                                   0.08328785840639125                                     0.09750062650007184                                    0.09299797466483463                                  0.09070280364152503                                   0.08906825218233583                                   0.08786861425583298                                     0.09999999999999994                                   0.10000000000000549                                 0.09999999999977426                                  0.09999999970703755                                  0.0999999893558248
2.5                                               3.0290323247143494E-20                                 5.392887728723508E-6                                  6.017416711805372E-6                                5.971557733053845E-6                                 5.9410103556284315E-6                                5.216011050291646E-6                                   2.929662111608206E-20                                  1.8427997545637528E-19                                 0.038676982610285224                                  0.037535192030829626                                0.03665148534783632                                  0.03602723379182003                                  0.03494696598191894                                    1.7821835429132968E-19                                 0.041136516708132106                                   0.03985563231075846                                  0.03891399430200321                                   0.03824872676326898                                   0.037161024566386903                                    0.04286994037559737                                    0.041489963397670006                                 0.040507790871491534                                  0.03981346978843395                                   0.03872206354421888                                     0.04581093291703329                                    0.04426124024521472                                  0.043210362629217604                                  0.04246693013784497                                   0.04137080867530507                                     0.09277138182736858                                    0.0885770875389681                                   0.08644628300367824                                   0.08493032028265676                                   0.08376520921750807                                     0.09756735503809448                                    0.0932206228726291                                   0.09099184768635993                                   0.08940144963981574                                   0.0882286875999499                                      0.09999999999999994                                   0.10000000000000549                                 0.09999999999978                                     0.09999999971569187                                  0.09999998968129359
3                                                 6.653079254641356E-19                                  1.6414228692879113E-5                                 1.8508883503435508E-5                               1.8329827719699215E-5                                1.8209352226843268E-5                                1.5738466340909262E-5                                  6.420039200234454E-19                                  3.7446129912282095E-18                                 0.04011103863576355                                   0.03910722509234784                                 0.03819383464068106                                  0.03754696069119293                                  0.03628154157572947                                    3.61240792069837E-18                                   0.04252292615259333                                    0.041380327759152756                                 0.04041233149516322                                   0.03972673582567143                                   0.03846164672617861                                     0.04422099243445083                                    0.04297939658279572                                  0.04197326451932697                                   0.04126028870949132                                   0.039997199520151606                                    0.04709944852711062                                    0.0456881697379327                                   0.04461749001015443                                   0.04385830253520295                                   0.0426004763969186                                      0.09294233833215493                                    0.08888150201765678                                  0.0867991895389211                                    0.0853154353826361                                    0.08415552723106322                                     0.0976201605526786                                     0.09340152364430418                                  0.09122789571023224                                   0.08967453051804164                                   0.08852375718167213                                     0.09999999999999994                                   0.10000000000000549                                 0.09999999999978465                                  0.09999999972261885                                  0.09999998994281746
3.5                                               7.540625145442373E-18                                  3.760828556927344E-5                                  4.280428513290547E-5                                4.2315090610836526E-5                                4.198376985109878E-5                                 3.579605441338045E-5                                   7.259838407709236E-18                                  3.9422503585373955E-17                                 0.0412882795724818                                    0.040432908402514296                                0.03949967755677074                                  0.038837501626849395                                 0.03739989858121758                                    3.7936405268102076E-17                                 0.04365969293164614                                    0.0426646183782338                                   0.041679481123619216                                  0.04098045400023613                                   0.03955045828507379                                     0.045328005369666344                                   0.044233153184486465                                 0.04321180797783976                                   0.04248675041261533                                   0.041064059002514905                                    0.048154219783726006                                   0.04688820639765754                                  0.04580562868683092                                   0.04503667874970071                                   0.043628478481240296                                    0.09308150872783424                                    0.08913546118477426                                  0.08709467873642676                                   0.08563873413633612                                   0.0844816530824266                                      0.09766322477034187                                    0.09355221199973202                                  0.09142526752117892                                   0.08990345590518228                                   0.0887709047318669                                      0.09999999999999994                                   0.10000000000000549                                 0.09999999999978838                                  0.0999999997283194                                   0.09999999015872213
4                                                 5.861927417453472E-17                                  7.223354307345942E-5                                  8.292081308636298E-5                                8.180926023025986E-5                                 8.112511371528043E-5                                 6.831118132661902E-5                                   5.630724977045097E-17                                  2.8555256455694274E-16                                 0.042278020414107505                                  0.04157266413637847                                 0.0406255681920939                                   0.039952553695014575                                 0.038354250146507465                                   2.741079531455113E-16                                  0.044614559476945086                                   0.04376782740114253                                  0.04277106673981745                                   0.04206275868755109                                   0.04047888071426649                                     0.04625740611824937                                    0.04530959488294491                                  0.044278217746339554                                  0.04354499600257266                                   0.041973365025896124                                    0.04903914303953969                                    0.047917813836021166                                 0.04682792792541049                                   0.04605272317912053                                   0.044504148873049196                                    0.0931978482343635                                     0.08935204854388196                                  0.08734734698212225                                   0.08591568959983367                                   0.08475971107089851                                     0.09769930464889166                                    0.09368057372484924                                  0.09159386675435809                                   0.09009936783750314                                   0.08898213575884567                                     0.09999999999999995                                   0.1000000000000055                                  0.09999999999979153                                  0.09999999973312805                                  0.09999999034130976
4.5                                               2.442542563125619E-16                                  1.2243715589490786E-4                                 1.4164366858989878E-4                               1.3920609894682275E-4                                1.3824063748529259E-4                                1.1516586963181197E-4                                  2.344848906965655E-16                                  1.1645282622574972E-15                                 0.04312006931463337                                   0.04256245854228738                                 0.041605631077636755                                 0.040924878911666615                                 0.03917641490631888                                    1.1169171395737165E-15                                 0.04542632350050848                                    0.04472516607371343                                  0.04372055613764382                                   0.04300582103893115                                   0.04127817038820832                                     0.04704717738653141                                    0.046243302785201175                                 0.045205406760486504                                  0.044466693152359626                                  0.04275589962994294                                     0.049790670814655075                                   0.04881036557733985                                  0.047716229578591285                                  0.04693712590811924                                   0.04525735296139727                                     0.09329637331533364                                    0.08953882689199014                                  0.08756571853930323                                   0.08615541190101356                                   0.08499922594922417                                     0.09772993654810085                                    0.09379115218825781                                  0.09173945496881043                                   0.09026879784001604                                   0.08916452581388705                                     0.09999999999999994                                   0.10000000000000549                                 0.09999999999979421                                  0.09999999973723386                                  0.09999999049756589
5                                                 9.146369284538586E-16                                  1.9019921664984504E-4                                 2.217188152389227E-4                                2.1781072489068863E-4                                2.1594564358008963E-4                                1.7805151170840873E-4                                  8.774030710625255E-16                                  4.248361707920886E-15                                  0.04385284906458949                                   0.043437873271503565                                0.0424738792943985                                   0.041787327258348966                                 0.039898171052028884                                   4.070448988190906E-15                                  0.04613237311737228                                    0.045571413060232775                                 0.044561255042949964                                  0.043841848352611276                                  0.04197950101356814                                     0.04773388883359023                                    0.0470684016778389                                   0.04602609868124657                                   0.04528351641755407                                   0.04344233897394649                                     0.05044385632916052                                    0.049598752988405284                                 0.04850215222065628                                   0.04772054473972125                                   0.045917820378975384                                    0.09338186462114499                                    0.08970317144753372                                  0.08775815983380411                                   0.08636688751093985                                   0.08520960789800783                                     0.09775658122380028                                    0.09388836948949304                                  0.0918676746976671                                    0.09041817316534437                                   0.08932506296980566                                     0.09999999999999995                                   0.10000000000000549                                 0.09999999999979658                                  0.09999999974081838                                  0.09999999063422411