% Model:              MSA_reference.mph
% Version:            COMSOL 6.3.0.290
% Date:               Apr 9 2026, 12:34
% Table:              Probe Table inner edge - 
% Time (min)                                      Molar concentration, is (mol/m^3), Point: (1.78, -4.5) Molar concentration, is (mol/m^3), Point: (1.78, 0.5) Molar concentration, is (mol/m^3), Point: (1.78, 5) Molar concentration, is (mol/m^3), Point: (1.78, 10) Molar concentration, is (mol/m^3), Point: (1.78, 15) Molar concentration, is (mol/m^3), Point: (1.78, 19.5) Molar concentration, is (mol/m^3), Point: (1.78, 24.5) Molar concentration, is (mol/m^3), Point: (0.28, -4.5) Molar concentration, is (mol/m^3), Point: (0.28, 0.5) Molar concentration, is (mol/m^3), Point: (0.28, 5) Molar concentration, is (mol/m^3), Point: (0.28, 10) Molar concentration, is (mol/m^3), Point: (0.28, 15) Molar concentration, is (mol/m^3), Point: (0.28, 19.5) Molar concentration, is (mol/m^3), Point: (0.28, 24.5) Molar concentration, is (mol/m^3), Point: (0.265, 0.5) Molar concentration, is (mol/m^3), Point: (0.265, 5) Molar concentration, is (mol/m^3), Point: (0.265, 10) Molar concentration, is (mol/m^3), Point: (0.265, 15) Molar concentration, is (mol/m^3), Point: (0.265, 19.5) Molar concentration, is (mol/m^3), Point: (0.255, 0.5) Molar concentration, is (mol/m^3), Point: (0.255, 5) Molar concentration, is (mol/m^3), Point: (0.255, 10) Molar concentration, is (mol/m^3), Point: (0.255, 15) Molar concentration, is (mol/m^3), Point: (0.255, 19.5) Molar concentration, is (mol/m^3), Point: (0.245, 0.5) Molar concentration, is (mol/m^3), Point: (0.245, 5) Molar concentration, is (mol/m^3), Point: (0.245, 10) Molar concentration, is (mol/m^3), Point: (0.245, 15) Molar concentration, is (mol/m^3), Point: (0.245, 19.5) Molar concentration, is (mol/m^3), Point: (0.155, 0.5) Molar concentration, is (mol/m^3), Point: (0.155, 5) Molar concentration, is (mol/m^3), Point: (0.155, 10) Molar concentration, is (mol/m^3), Point: (0.155, 15) Molar concentration, is (mol/m^3), Point: (0.155, 19.5) Molar concentration, is (mol/m^3), Point: (0.145, 0.5) Molar concentration, is (mol/m^3), Point: (0.145, 5) Molar concentration, is (mol/m^3), Point: (0.145, 10) Molar concentration, is (mol/m^3), Point: (0.145, 15) Molar concentration, is (mol/m^3), Point: (0.145, 19.5) Molar concentration, is (mol/m^3), Point: (0.01, 0.5) Molar concentration, is (mol/m^3), Point: (0.01, 5) Molar concentration, is (mol/m^3), Point: (0.01, 10) Molar concentration, is (mol/m^3), Point: (0.01, 15) Molar concentration, is (mol/m^3), Point: (0.01, 19.5)
0                                                 0                                                      0                                                     0                                                   0                                                    0                                                    0                                                      0                                                      5.729944107700294E-74                                  1.5980248190074213E-21                                1.3133231864204619E-21                              1.1296003451319574E-21                               1.3133231864209112E-21                               1.5020653809366775E-21                                 -8.615282567799756E-76                                 7.737103361823808E-11                                  1.0131970970627346E-10                               5.816196091662845E-12                                 1.0131970970615198E-10                                7.753380556412854E-11                                   2.930429229613114E-4                                   2.2105648627577965E-4                                2.674241095924122E-4                                  2.2105648627572275E-4                                 2.9294323595925375E-4                                   0.09942144000336609                                    0.09942821011260158                                  0.0994706718033139                                    0.09942821011259739                                   0.09942128364347567                                     0.0999999999999963                                     0.09999999999999638                                  0.09999999999999641                                   0.09999999999999934                                   0.09999999999997934                                     0.09999999999999849                                    0.0999999999999976                                   0.09999999999998069                                   0.10000000000001893                                   0.09999999999997691                                     0.09999999999999981                                   0.10000000000000814                                 0.09999999999998813                                  0.0999999999999989                                   0.09999999999998563
0.5                                               2.1682798143236856E-63                                 2.5286341038259275E-15                                2.5737803485191966E-15                              2.5737279185760545E-15                               2.573706198090561E-15                                2.528326345575611E-15                                  -3.124277464280648E-63                                 3.364910509616767E-55                                  0.0277058134963333                                    0.0270377076786532                                  0.026747939682481677                                 0.026558973587425077                                 0.026422950200844748                                   -4.974014095005886E-55                                 0.0305814566240748                                     0.029777161403746005                                 0.0294255625544124                                    0.029195521991194438                                  0.02903103991388579                                     0.03262030040638092                                    0.03171265939762536                                  0.031314157899745065                                  0.031052234035729216                                  0.030865942316770336                                    0.03609262029214657                                    0.0349993033160087                                   0.03451511915024285                                   0.03419543987333573                                   0.033968621881912076                                    0.0915628776213458                                     0.08679299020760049                                  0.08454579609531496                                   0.08299889445580726                                   0.08189574772186525                                     0.09719936559159274                                    0.09214443170068937                                  0.08969986670730849                                   0.0880073085926964                                    0.08679742635556102                                     0.09999999999999977                                   0.10000000000000815                                 0.09999999999974969                                  0.09999999966378298                                  0.09999998808097556
1                                                 6.262087404097831E-33                                  1.3147120163763757E-9                                 1.3924040734481512E-9                               1.3906813395572726E-9                                1.389619074537363E-9                                 1.3072020571805415E-9                                  6.218552061390596E-33                                  1.5524887912897365E-31                                 0.03158056998330376                                   0.030370799849411174                                0.02975603410313183                                  0.029332110083896527                                 0.02892534587452208                                    1.5417547725935186E-31                                 0.03425389720986416                                    0.03289168310555453                                  0.03220461767026434                                   0.031730373891660446                                  0.031291341567140335                                    0.03615059164596509                                    0.03467839111447048                                  0.033939543875055225                                  0.0334286534529462                                    0.0329668095725745                                      0.03938555533554795                                    0.03772428069106945                                  0.03689551203962977                                   0.03632165380750918                                   0.03582002122493446                                     0.09190090780591299                                    0.08715525921583243                                  0.08483290772345324                                   0.08319880916582881                                   0.08200548332523323                                     0.09730022013881276                                    0.09236982696109972                                  0.08990546148348937                                   0.08816459497674548                                   0.08689918148034309                                     0.09999999999999977                                   0.10000000000000815                                 0.09999999999975762                                  0.09999999967529792                                  0.09999998847533599
1.5                                               7.416190088956739E-29                                  9.818838341888436E-8                                  1.0592765431675826E-7                               1.0562979657197808E-7                                1.0543988675398646E-7                                9.694343453925489E-8                                   7.353413014471448E-29                                  1.5609520293423078E-27                                 0.03461755267331504                                   0.03329507077193346                                 0.03253272629466657                                  0.031999540507746706                                 0.03135262695311245                                    1.5476576796552745E-27                                 0.03720095463332438                                    0.03573273398337597                                  0.034902908765571734                                  0.03432229829240145                                   0.033650471793904804                                    0.03902859516851914                                    0.03745629539029968                                  0.03657889932658003                                   0.03596431927309722                                   0.03527572587701468                                     0.0421383765095716                                     0.04038879319184083                                  0.03942986783493937                                   0.03875774034358087                                   0.03804078970139095                                     0.09227296730654425                                    0.08773467444117092                                  0.08547811132329243                                   0.08388079031340799                                   0.0826942562244082                                      0.09741480924737254                                    0.09271794018139451                                  0.09034211165703865                                   0.0886544197329758                                    0.0874199866703075                                      0.09999999999999977                                   0.10000000000000815                                 0.0999999999997673                                   0.09999999968990436                                  0.09999998900326157
2                                                 5.424131034486979E-26                                  9.986056218617857E-7                                  1.0952239340684E-6                                  1.090172362552839E-6                                 1.0868838535748566E-6                                9.782387006300015E-7                                   5.367558163729199E-26                                  9.479050880523386E-25                                  0.03690302434348969                                   0.035632814581326375                                0.03479564735633915                                  0.03420640959253584                                  0.03334358998841349                                    9.378588590535788E-25                                  0.03941848514018126                                    0.038007767218485436                                 0.03710843300089936                                   0.036475358145552125                                  0.035596238580970906                                    0.04119413688384657                                    0.03968318164851861                                  0.03874027653423496                                   0.03807598466019155                                   0.03718663181290896                                     0.04420984494848911                                    0.042528335029469844                                 0.041511086062562465                                  0.040794175968134054                                  0.039888178627033886                                    0.09255347190787935                                    0.08820325587036901                                  0.08601496521658024                                   0.08446152980998144                                   0.08328766903655517                                     0.09750122585354341                                    0.0929976658727723                                   0.09070280364152537                                   0.08906818411209017                                   0.08786681338883179                                     0.09999999999999977                                   0.10000000000000815                                 0.09999999999977469                                  0.09999999970119519                                  0.099999989415307
2.5                                               2.723849132818568E-20                                  5.399908351988882E-6                                  6.017414454732773E-6                                5.971557733053857E-6                                 5.94101000702527E-6                                  5.222780724885635E-6                                   2.634488645788408E-20                                  1.6335996019257148E-19                                 0.03869673432584883                                   0.037535112361883255                                0.036651485347835924                                 0.036027187943831154                                 0.03496589104535737                                    1.5798642424958275E-19                                 0.04115540573642915                                    0.03985559761888398                                  0.038913994302004505                                  0.03824872598081422                                   0.037179332271203416                                    0.04288834598369217                                    0.04148989509026267                                  0.04050779087149127                                   0.03981343814912888                                   0.03873990786112847                                     0.04582777174554412                                    0.044261406037962595                                 0.04321036262921746                                   0.04246712553731792                                   0.041387724372568456                                    0.09276998306618206                                    0.08857717803163208                                  0.08644628300367711                                   0.0849304834059618                                    0.08376528539210343                                     0.0975679192623882                                     0.09322032375586356                                  0.09099184768636029                                   0.0894013829822567                                    0.0882270035173396                                      0.09999999999999977                                   0.10000000000000815                                 0.09999999999978043                                  0.0999999997100238                                   0.09999998973894679
3                                                 6.024537359432406E-19                                  1.6435184137076725E-5                                 1.8508875975901353E-5                               1.8329827719699252E-5                                1.8209351185360504E-5                                1.575838925653238E-5                                   5.813601251009847E-19                                  3.3477930514174804E-18                                 0.04013235129826331                                   0.03910714620218766                                 0.03819383464068064                                  0.037546916281991964                                 0.036301747715893694                                   3.2296650629405846E-18                                 0.04254332893908242                                    0.041380291976139884                                 0.040412331495164565                                  0.03972673466206796                                   0.03848119310921411                                     0.04424087009067043                                    0.042979328618111545                                 0.04197326451932669                                   0.04126025791443784                                   0.04001625061046252                                     0.04711771144580254                                    0.045688326771868265                                 0.044617490010154276                                  0.0438584903158812                                    0.04261854508741357                                     0.09294113164704294                                    0.08888158981413313                                  0.08679918953891999                                   0.08531559397017356                                   0.08415580107511689                                     0.09762068959644203                                    0.09340123251966279                                  0.0912278957102326                                    0.08967446511973942                                   0.0885221667419089                                      0.09999999999999977                                   0.10000000000000814                                 0.09999999999978505                                  0.09999999971709037                                  0.09999998999899924
3.5                                               6.8715592611997124E-18                                 3.76536775783388E-5                                   4.2804391956371967E-5                               4.231509061083663E-5                                 4.198377281907315E-5                                 3.5838578448706304E-5                                  6.61587800452755E-18                                   3.551496916740311E-17                                  0.04131069139450002                                   0.04043283028720514                                 0.03949967755677031                                  0.03883745839532851                                  0.037421045259874955                                   3.4177503425736594E-17                                 0.043681160343692106                                   0.0426645818905077                                   0.041679481123620604                                  0.040980452557410174                                  0.03957091343498602                                     0.045348917217015956                                   0.04423308565550986                                  0.043211807977839474                                  0.04248672032224333                                   0.041083995090455745                                    0.048173483480512584                                   0.04688835661420039                                  0.04580562868683076                                   0.04503686042713835                                   0.04364739241264992                                     0.09308043786353157                                    0.08913554679872715                                  0.08709467873642565                                   0.08563888896443698                                   0.0844820781464999                                      0.09766372055903183                                    0.09355192761833488                                  0.09142526752117927                                   0.08990339162182617                                   0.08876938949607381                                     0.09999999999999977                                   0.10000000000000814                                 0.09999999999978881                                  0.09999999972290585                                  0.0999999902136879
4                                                 5.372931226757392E-17                                  7.231414159008495E-5                                  8.295716584886319E-5                                8.180926023026003E-5                                 8.11266518077593E-5                                  6.838594529798563E-5                                   5.161229188862307E-17                                  2.5904590833507453E-16                                 0.042301221803910424                                  0.041572586755161574                                0.04062556819209345                                  0.03995251144663518                                  0.038376102469817625                                   2.4867732985347803E-16                                 0.0446367909223338                                     0.043767790441226806                                 0.04277106673981887                                   0.042062757031513326                                  0.040500017239802545                                    0.046279059403494                                      0.045309527816501764                                 0.04427821774633926                                   0.04354496650993936                                   0.04199396445006709                                     0.04905912483348165                                    0.047917958557676166                                 0.04682792792541032                                   0.046052899830720764                                  0.04452369622927857                                     0.09319687643567776                                    0.08935213233995946                                  0.08734734698212113                                   0.0859158412378094                                    0.08476025462621327                                     0.09769976989547882                                    0.09368029514612944                                  0.09159386675435843                                   0.09009930454459139                                   0.08898068233204254                                     0.09999999999999981                                   0.10000000000000815                                 0.09999999999979195                                  0.09999999972781151                                  0.09999999039524637
4.5                                               2.2424070484732094E-16                                 1.225639525461766E-4                                  1.4174032090642639E-4                               1.3920609894682305E-4                                1.3832381736497137E-4                                1.1528280049161219E-4                                  2.152850092570746E-16                                  1.0590244997811664E-15                                 0.043143834960168256                                  0.04256238184626852                                 0.041605631077636304                                 0.04092483749324312                                  0.0391987949507147                                     1.015806731156305E-15                                  0.04544910045695412                                    0.04472512880087741                                  0.04372055613764527                                   0.04300581921745546                                   0.04129981609247249                                     0.04706935943110483                                    0.04624323618322984                                  0.045205406760486205                                  0.04446666417156685                                   0.0427769945454617                                      0.04981116545349362                                    0.048810505798403736                                 0.047716229578591125                                  0.04693729836475999                                   0.045277373350983155                                    0.09329547423647985                                    0.08953890915389208                                  0.08756571853930209                                   0.08615556080101888                                   0.08499986403607317                                     0.0977303741136378                                     0.09379087865432992                                  0.09173945496881077                                   0.09026873543001218                                   0.08916312468530212                                     0.09999999999999977                                   0.10000000000000815                                 0.09999999999979464                                  0.09999999973200017                                  0.09999999055062112
5                                                 8.413382075185481E-16                                  1.9038477637932168E-4                                 2.2185695713791828E-4                               2.1781072489068912E-4                                2.1605719852174648E-4                                1.782216271419187E-4                                   8.071554111388147E-16                                  3.874489165946428E-15                                  0.04387703235517762                                   0.04343779721048438                                 0.04247387929439803                                  0.04178728655730088                                  0.039920956075713374                                   3.712616925667982E-15                                  0.04615555361346465                                    0.04557137557162837                                  0.04456125504295144                                   0.043841846397319716                                  0.04200153717807144                                     0.0477564616094191                                     0.04706833552542057                                  0.04602609868124626                                   0.045283487883940717                                  0.04346381369093692                                     0.050464730680021344                                   0.04959888940218285                                  0.048502152220656104                                  0.047720713598535136                                  0.0459382032636249                                      0.0933810214074521                                     0.08970325238224014                                  0.08775815983380297                                   0.08636703401102375                                   0.08521032110402632                                     0.09775699388172818                                    0.09388810042319412                                  0.09186767469766745                                   0.09041811155023244                                   0.08932370488516923                                     0.09999999999999977                                   0.10000000000000815                                 0.09999999999979699                                  0.0999999997356571                                   0.09999999068650803