% Model:              MSA_reference.mph
% Version:            COMSOL 6.3.0.290
% Date:               Apr 9 2026, 13:00
% Table:              Probe Table inner edge - 
% Time (min)                                      Molar concentration, is (mol/m^3), Point: (1.78, -4.5) Molar concentration, is (mol/m^3), Point: (1.78, 0.5) Molar concentration, is (mol/m^3), Point: (1.78, 5) Molar concentration, is (mol/m^3), Point: (1.78, 10) Molar concentration, is (mol/m^3), Point: (1.78, 15) Molar concentration, is (mol/m^3), Point: (1.78, 19.5) Molar concentration, is (mol/m^3), Point: (1.78, 24.5) Molar concentration, is (mol/m^3), Point: (0.28, -4.5) Molar concentration, is (mol/m^3), Point: (0.28, 0.5) Molar concentration, is (mol/m^3), Point: (0.28, 5) Molar concentration, is (mol/m^3), Point: (0.28, 10) Molar concentration, is (mol/m^3), Point: (0.28, 15) Molar concentration, is (mol/m^3), Point: (0.28, 19.5) Molar concentration, is (mol/m^3), Point: (0.28, 24.5) Molar concentration, is (mol/m^3), Point: (0.265, 0.5) Molar concentration, is (mol/m^3), Point: (0.265, 5) Molar concentration, is (mol/m^3), Point: (0.265, 10) Molar concentration, is (mol/m^3), Point: (0.265, 15) Molar concentration, is (mol/m^3), Point: (0.265, 19.5) Molar concentration, is (mol/m^3), Point: (0.255, 0.5) Molar concentration, is (mol/m^3), Point: (0.255, 5) Molar concentration, is (mol/m^3), Point: (0.255, 10) Molar concentration, is (mol/m^3), Point: (0.255, 15) Molar concentration, is (mol/m^3), Point: (0.255, 19.5) Molar concentration, is (mol/m^3), Point: (0.245, 0.5) Molar concentration, is (mol/m^3), Point: (0.245, 5) Molar concentration, is (mol/m^3), Point: (0.245, 10) Molar concentration, is (mol/m^3), Point: (0.245, 15) Molar concentration, is (mol/m^3), Point: (0.245, 19.5) Molar concentration, is (mol/m^3), Point: (0.155, 0.5) Molar concentration, is (mol/m^3), Point: (0.155, 5) Molar concentration, is (mol/m^3), Point: (0.155, 10) Molar concentration, is (mol/m^3), Point: (0.155, 15) Molar concentration, is (mol/m^3), Point: (0.155, 19.5) Molar concentration, is (mol/m^3), Point: (0.145, 0.5) Molar concentration, is (mol/m^3), Point: (0.145, 5) Molar concentration, is (mol/m^3), Point: (0.145, 10) Molar concentration, is (mol/m^3), Point: (0.145, 15) Molar concentration, is (mol/m^3), Point: (0.145, 19.5) Molar concentration, is (mol/m^3), Point: (0.01, 0.5) Molar concentration, is (mol/m^3), Point: (0.01, 5) Molar concentration, is (mol/m^3), Point: (0.01, 10) Molar concentration, is (mol/m^3), Point: (0.01, 15) Molar concentration, is (mol/m^3), Point: (0.01, 19.5)
0                                                 0                                                      0                                                     0                                                   0                                                    0                                                    0                                                      0                                                      -1.0227107088030994E-72                                1.4594644120283774E-21                                1.4341523599924425E-21                              1.1296003451319625E-21                               1.4341523599934722E-21                               1.3471881589443835E-21                                 -1.1594052086020775E-72                                1.0119764215082852E-10                                 1.0134918029338978E-10                               5.816196091662254E-12                                 1.0134918029330134E-10                                5.360862557590944E-11                                   2.490589950882061E-4                                   2.5115488959815416E-4                                2.6742410959241516E-4                                 2.511548895981096E-4                                  2.615343586868271E-4                                    0.0994069951184538                                     0.09941913547644676                                  0.09947067180331426                                   0.0994191354406877                                    0.09945818121915756                                     0.09999999999999852                                    0.09999999999999996                                  0.09999999999999794                                   0.10000000000000143                                   0.09999999999999172                                     0.10000000000000218                                    0.09999999999999704                                  0.09999999999998035                                   0.10000000000000789                                   0.0999999999999859                                      0.1                                                   0.10000000000000486                                 0.09999999999998768                                  0.09999999999999917                                  0.09999999999999373
0.5                                               1.8251580113920863E-62                                 2.5168363533654234E-15                                2.5737803632844915E-15                              2.573727918576296E-15                                2.573706199661483E-15                                2.5165131347058683E-15                                 -2.630671450454648E-62                                 2.8834088025021245E-54                                 0.027699100315882477                                  0.027037769772588167                                0.026747939682482402                                 0.02655899145890101                                  0.026414208623841834                                   -4.238144500398989E-54                                 0.03057558173025014                                    0.02977723344937188                                  0.029425562554411554                                  0.029195541238346726                                  0.029022733802890298                                    0.03261504027800451                                    0.031712752143096115                                 0.031314157899745405                                  0.031052266329056694                                  0.030858046552324964                                    0.036089026146875834                                   0.03499918196705587                                  0.03451511915024298                                   0.03419526953495511                                   0.03396161315792276                                     0.09157421287933214                                    0.08679318207641404                                  0.08454579609531626                                   0.08299880390638716                                   0.08189462229169867                                     0.09720783016847068                                    0.09214495923315213                                  0.08969986670730819                                   0.08800742014749305                                   0.08679627034788474                                     0.09999999999999998                                   0.10000000000000486                                 0.09999999999974925                                  0.09999999967062816                                  0.09999998788574885
1                                                 1.3524005822976954E-32                                 1.3074885395365474E-9                                 1.3924044196578335E-9                               1.3906813395574031E-9                                1.3896191230115578E-9                                1.3000217386538141E-9                                  1.3429969054660977E-32                                 3.6556559816682877E-31                                 0.03154679455137692                                   0.030370905103437058                                0.029756034103132642                                 0.029332134987686286                                 0.02888890736653961                                    3.630381620687218E-31                                  0.03422168531469058                                    0.032891798942762326                                 0.03220461767026342                                   0.031730400477655504                                  0.03125601004318117                                     0.03611960541235932                                    0.034678527811407456                                 0.0339395438750556                                    0.03342869376220503                                   0.03293246722501654                                     0.03935737883363106                                    0.03772419808606216                                  0.03689551203962991                                   0.0363214776666492                                    0.035787703901664386                                    0.09190892042777081                                    0.08715544019689095                                  0.08483290772345455                                   0.08319870708192072                                   0.08200161221284752                                     0.09730781772751534                                    0.09237033722581862                                  0.08990546148348905                                   0.08816470529037751                                   0.08689759467962095                                     0.09999999999999998                                   0.10000000000000486                                 0.09999999999975717                                  0.09999999968190859                                  0.09999998828643149
1.5                                               1.487832998651187E-28                                  9.767288521387985E-8                                  1.0592771003187777E-7                               1.0562979657198797E-7                                1.0543989484409486E-7                                9.64354035070858E-8                                    1.4751803715363884E-28                                 3.375478557045656E-27                                  0.03456616747356948                                   0.03329519371006964                                 0.03253272629466746                                  0.0319995678826981                                   0.0313006474221577                                     3.3465730929672065E-27                                 0.03715158835729188                                    0.03573286652805133                                  0.03490290876557073                                   0.034322327201972314                                  0.03359999513457194                                     0.03898081419442121                                    0.037456447129160714                                 0.03657889932658043                                   0.03596436110629682                                   0.03522654143309453                                     0.04209402791541787                                    0.04038873938846424                                  0.03942986783493951                                   0.03875757713709366                                   0.0379941828885528                                      0.09227875671815124                                    0.08773484800484885                                  0.08547811132329375                                   0.08388069254767679                                   0.0826886389953243                                      0.0974219087355881                                     0.09271842630879862                                  0.09034211165703833                                   0.08865452631102971                                   0.08741805726999666                                     0.09999999999999998                                   0.10000000000000488                                 0.09999999999976686                                  0.09999999969621601                                  0.09999998882300466
2                                                 1.0077251905274012E-25                                 9.936803571312843E-7                                  1.0952248360398292E-6                               1.090172362552941E-6                                 1.0868839872164846E-6                                9.73428464176517E-7                                    9.971303132065364E-26                                  1.8768138229514205E-24                                 0.036840678518437656                                  0.03563294585557443                                 0.0347956473563401                                   0.034206437931907446                                 0.03328288369206249                                    1.8567319826395977E-24                                 0.03935848174767578                                    0.03800790723667609                                  0.0371084330008983                                    0.03647538788022499                                   0.03553730695266453                                     0.04113596531856823                                    0.0396833394714102                                   0.03874027653423539                                   0.03807602655328713                                   0.037129190974693964                                    0.04415551794608332                                    0.042528299210744226                                 0.041511086062562624                                  0.04079402408793471                                   0.0398336613415372                                      0.09255792005866775                                    0.08820342331074975                                  0.08601496521658157                                   0.08446143628555615                                   0.08328105657226068                                     0.09750804514611394                                    0.09299813252513561                                  0.09070280364152505                                   0.08906828730318865                                   0.08786465185934023                                     0.09999999999999998                                   0.10000000000000486                                 0.09999999999977423                                  0.09999999970727531                                  0.0999999892418289
2.5                                               3.6188571293500625E-20                                 5.376119759667902E-6                                  6.017422199551213E-6                                5.971557733054416E-6                                 5.941011175863958E-6                                 5.1998640186354175E-6                                  3.500140935462951E-20                                  2.24988239346955E-19                                   0.03862689688479349                                   0.03753524855691548                                 0.03665148534783693                                  0.03602721677921853                                  0.03489921128360786                                    2.1758747682722005E-19                                 0.041088147067642425                                   0.03985574189830385                                  0.03891399430200338                                   0.03824875610625235                                   0.03711462567674166                                     0.04282309632153371                                    0.04149005612429453                                  0.040507790871491714                                  0.039813479840008395                                  0.038676836011951925                                    0.04576665872829761                                    0.04426138244566136                                  0.04321036262921762                                   0.04246698219709102                                   0.04132782445221194                                     0.09277352851205278                                    0.08857734032552005                                  0.08644628300367845                                   0.08493039316881447                                   0.08375798944907861                                     0.09757455877002609                                    0.09322077477756588                                  0.09099184768635997                                   0.0894014833500712                                    0.08822467122837005                                     0.09999999999999998                                   0.10000000000000486                                 0.09999999999977997                                  0.09999999971592269                                  0.09999998957080619
3                                                 7.864239028131867E-19                                  1.6365453186400814E-5                                 1.850890535730299E-5                                1.832982771970097E-5                                 1.8209355732756726E-5                                1.569214462913147E-5                                   7.588596998959753E-19                                  4.513694389976612E-18                                  0.040057351462138985                                  0.03910728533417114                                 0.03819383464068169                                  0.03754694535928064                                  0.036230821964356695                                   4.354194480965448E-18                                  0.04247107971707037                                    0.04138043867747755                                  0.0404123314951634                                    0.039726764947434795                                  0.03841238662928861                                     0.0441707567957903                                     0.04297949126287261                                  0.041973264519327154                                  0.04126029930062296                                   0.03994918410214993                                     0.047051940846277535                                   0.04568831175558752                                  0.04461749001015444                                   0.04385835352675413                                   0.04255483078801558                                     0.09294405956426599                                    0.08888174774728128                                  0.08679918953892131                                   0.08531550635175467                                   0.08414801372985664                                     0.09762721170158122                                    0.09340167074290767                                  0.09122789571023227                                   0.08967456311595398                                   0.08851970517189213                                     0.09999999999999998                                   0.10000000000000486                                 0.09999999999978462                                  0.09999999972284412                                  0.099999989835154
3.5                                               8.826588389906588E-18                                  3.750334335152287E-5                                  4.280448672779803E-5                                4.231509061084059E-5                                 4.198378156789353E-5                                 3.569774134292038E-5                                   8.497531611374173E-18                                  4.69699236983088E-17                                   0.04123207325982683                                   0.04043297121819828                                 0.03949967755677139                                  0.03883748757907504                                  0.03734700848880034                                    4.519656256243062E-17                                  0.04360541869430602                                    0.04266472997643794                                  0.041679481123619404                                  0.04098048288309474                                   0.03949910545079919                                     0.045275403250922025                                   0.044233249037746177                                 0.043211807977839946                                  0.04248676137517506                                   0.04101400527811548                                     0.04810445868781545                                    0.04688834788980664                                  0.04580562868683093                                   0.04503672882166089                                   0.04358088781235212                                     0.09308293166143762                                    0.0891357009829153                                   0.08709467873642698                                   0.08563880349930196                                   0.08447392374078518                                     0.09767016282570971                                    0.0935523551068157                                   0.09142526752117897                                   0.08990348759557004                                   0.0887668259275744                                      0.09999999999999998                                   0.10000000000000486                                 0.09999999999978837                                  0.09999999972854011                                  0.09999999005339319
4                                                 6.799728474471208E-17                                  7.204650583921873E-5                                  8.295712509031336E-5                                8.18092602302677E-5                                  8.11263914110044E-5                                  6.813768942740908E-5                                   6.531112002646973E-17                                  3.3659976564343324E-16                                 0.042220016331731315                                  0.04157272881385119                                 0.04062556819209457                                  0.039952540663148906                                 0.03829973919841996                                    3.230813707289642E-16                                  0.0445585554361228                                     0.04376793931219159                                  0.042771066739817634                                  0.04206278733507098                                   0.04042596647696459                                     0.046203118987593                                      0.04530969145191685                                  0.04427821774633975                                   0.04354500723232883                                   0.04192179106523931                                     0.04898777921649112                                    0.04791795465054428                                  0.046827927925410504                                  0.04605277245291624                                   0.04445510793515821                                     0.09319905556128164                                    0.08935228325008629                                  0.08734734698212247                                   0.08591575758862342                                   0.0847518198356671                                      0.0977061549772021                                     0.09368071343345441                                  0.09159386675435813                                   0.09009939876604377                                   0.08897803694915275                                     0.09999999999999998                                   0.10000000000000488                                 0.0999999999997915                                   0.09999999973334488                                  0.0999999902379573
4.5                                               2.826053428231653E-16                                  1.2214189337210793E-4                                 1.4174079042894867E-4                               1.3920609894683608E-4                                1.383228440407745E-4                                 1.1489386078448387E-4                                  2.7127587620913897E-16                                 1.3674557434540978E-15                                 0.043060789730853075                                  0.04256252458010756                                 0.04160563107763744                                  0.040924866696185565                                 0.03912069823252225                                    1.3113865035545302E-15                                 0.04536909437652022                                    0.0447252780599792                                   0.043720556137644015                                  0.043005849461296874                                  0.04122409593104154                                     0.04699169769233613                                    0.046243399763381585                                 0.045205406760486705                                  0.044466704576251084                                  0.0427031965613417                                      0.04973817404343819                                    0.048810505641132276                                 0.0477162295785913                                    0.04693717448511138                                   0.04520723530409311                                     0.09329742399281285                                    0.08953905717916384                                  0.08756571853930345                                   0.08615547870163563                                   0.08499121606120402                                     0.0977367172319896                                     0.09379128896666902                                  0.09173945496881046                                   0.090268828120146                                     0.08916041411046637                                     0.09999999999999998                                   0.10000000000000489                                 0.09999999999979418                                  0.09999999973744741                                  0.09999999039590653
5                                                 1.0549677525306544E-15                                 1.897685116526921E-4                                  2.2185725704146412E-4                               2.1781072489070953E-4                                2.1605726234363151E-4                                1.7765707073762573E-4                                  1.0118884663927423E-15                                 4.966494054518735E-15                                  0.043792631458595216                                  0.04343794035053204                                 0.042473879294399206                                 0.04178731572236961                                  0.03984153344431721                                    4.7577372137394756E-15                                 0.04607424443825242                                    0.045571524990238685                                 0.044561255042950165                                  0.04384187656352014                                   0.04192454134600329                                     0.047677533881027245                                   0.04706849888497086                                  0.04602609868124677                                   0.045283527989394154                                  0.0433887748280858                                      0.050390528876621064                                   0.04959889228743859                                  0.04850215222065629                                   0.04772059269943455                                   0.045866881921067706                                    0.09338279606459834                                    0.0897033978250712                                   0.08775815983380433                                   0.08636695326413797                                   0.08520150568547633                                     0.09776330392050964                                    0.09388850368635321                                  0.09186767469766713                                   0.09041820288007399                                   0.08932094037597554                                     0.09999999999999998                                   0.10000000000000488                                 0.09999999999979656                                  0.0999999997410291                                   0.09999999053404669