% Model:              MSA_reference.mph
% Version:            COMSOL 6.3.0.290
% Date:               Apr 9 2026, 13:56
% Table:              Probe Table inner edge - 
% Time (min)                                      Molar concentration, is (mol/m^3), Point: (1.78, -4.5) Molar concentration, is (mol/m^3), Point: (1.78, 0.5) Molar concentration, is (mol/m^3), Point: (1.78, 5) Molar concentration, is (mol/m^3), Point: (1.78, 10) Molar concentration, is (mol/m^3), Point: (1.78, 15) Molar concentration, is (mol/m^3), Point: (1.78, 19.5) Molar concentration, is (mol/m^3), Point: (1.78, 24.5) Molar concentration, is (mol/m^3), Point: (0.28, -4.5) Molar concentration, is (mol/m^3), Point: (0.28, 0.5) Molar concentration, is (mol/m^3), Point: (0.28, 5) Molar concentration, is (mol/m^3), Point: (0.28, 10) Molar concentration, is (mol/m^3), Point: (0.28, 15) Molar concentration, is (mol/m^3), Point: (0.28, 19.5) Molar concentration, is (mol/m^3), Point: (0.28, 24.5) Molar concentration, is (mol/m^3), Point: (0.265, 0.5) Molar concentration, is (mol/m^3), Point: (0.265, 5) Molar concentration, is (mol/m^3), Point: (0.265, 10) Molar concentration, is (mol/m^3), Point: (0.265, 15) Molar concentration, is (mol/m^3), Point: (0.265, 19.5) Molar concentration, is (mol/m^3), Point: (0.255, 0.5) Molar concentration, is (mol/m^3), Point: (0.255, 5) Molar concentration, is (mol/m^3), Point: (0.255, 10) Molar concentration, is (mol/m^3), Point: (0.255, 15) Molar concentration, is (mol/m^3), Point: (0.255, 19.5) Molar concentration, is (mol/m^3), Point: (0.245, 0.5) Molar concentration, is (mol/m^3), Point: (0.245, 5) Molar concentration, is (mol/m^3), Point: (0.245, 10) Molar concentration, is (mol/m^3), Point: (0.245, 15) Molar concentration, is (mol/m^3), Point: (0.245, 19.5) Molar concentration, is (mol/m^3), Point: (0.155, 0.5) Molar concentration, is (mol/m^3), Point: (0.155, 5) Molar concentration, is (mol/m^3), Point: (0.155, 10) Molar concentration, is (mol/m^3), Point: (0.155, 15) Molar concentration, is (mol/m^3), Point: (0.155, 19.5) Molar concentration, is (mol/m^3), Point: (0.145, 0.5) Molar concentration, is (mol/m^3), Point: (0.145, 5) Molar concentration, is (mol/m^3), Point: (0.145, 10) Molar concentration, is (mol/m^3), Point: (0.145, 15) Molar concentration, is (mol/m^3), Point: (0.145, 19.5) Molar concentration, is (mol/m^3), Point: (0.01, 0.5) Molar concentration, is (mol/m^3), Point: (0.01, 5) Molar concentration, is (mol/m^3), Point: (0.01, 10) Molar concentration, is (mol/m^3), Point: (0.01, 15) Molar concentration, is (mol/m^3), Point: (0.01, 19.5)
0                                                 0                                                      0                                                     0                                                   0                                                    0                                                    0                                                      0                                                      2.1788224694168728E-38                                 4.958196833079103E-25                                 4.4107527345865785E-25                              4.214703925140269E-25                                4.423851785039967E-25                                3.5865232026529826E-25                                 1.6979804624428477E-38                                 2.3924414838988784E-12                                 2.388026831112937E-12                                2.3911831536169415E-12                                2.390923045013063E-12                                 2.389461371985175E-12                                   3.4100560364112156E-5                                  3.405055329176096E-5                                 3.4086051745454E-5                                    3.408302781022936E-5                                  3.40663725077346E-5                                     0.09999797574585016                                    0.09998784335241516                                  0.09999904301653546                                   0.09999758343863553                                   0.09999303009681411                                     0.10000000000000002                                    0.10000000000000002                                  0.10000000000000002                                   0.10000000000000002                                   0.10000000000000002                                     0.10000000000000002                                    0.10000000000000002                                  0.10000000000000002                                   0.10000000000000002                                   0.10000000000000002                                     0.10000000000000002                                   0.10000000000000002                                 0.10000000000000002                                  0.10000000000000002                                  0.10000000000000002
0.5                                               2.9942630029900206E-30                                 2.4046837805071105E-15                                2.5535923762126257E-15                              2.553542238859601E-15                                2.553517764405101E-15                                2.404423332177206E-15                                  2.9860777531387873E-30                                 6.4621933977656546E-18                                 0.027751984267728853                                  0.027034146615596666                                0.026740928077635107                                 0.026550221705889658                                 0.026450422857034424                                   1.1824838258739151E-17                                 0.030630568052183116                                   0.02977808715056934                                  0.02942237024503062                                   0.02918967829020742                                   0.029056827725760043                                    0.03268524410769169                                    0.03171391023862309                                  0.031310601613850034                                  0.031045776581186013                                  0.03090244925644618                                     0.03616396416153709                                    0.034992106379599285                                 0.034502863521318414                                  0.03417975756999339                                   0.0340056109090108                                      0.09171640027694969                                    0.08678175918094048                                  0.08450865456262796                                   0.0829441362926863                                    0.08185535114165182                                     0.09743985072744739                                    0.09216927216581917                                  0.08968535437891256                                   0.08796915398301075                                   0.08676270265375309                                     0.1                                                   0.10000000000000002                                 0.10000000000061399                                  0.09999999985154669                                  0.0999999914038913
1                                                 1.0847235028718232E-25                                 1.2376359718069383E-9                                 1.3640390624081293E-9                               1.3623554883143457E-9                                1.361319009537609E-9                                 1.230504867838134E-9                                   8.213621428937584E-26                                  9.101495219612032E-18                                  0.03162653108547384                                   0.03036925628603892                                 0.02974705251443338                                  0.029318440309194435                                 0.028918441440533234                                   1.3273085979809385E-17                                 0.034303814070480165                                   0.03289448903581047                                  0.03219924861616043                                   0.03171932882926278                                   0.03128342273011771                                     0.03621667188591317                                    0.03468156196060895                                  0.03393378823217955                                   0.033416902182780185                                  0.032969460335873516                                    0.0394590527299589                                     0.03771889480654873                                  0.03688068002151784                                   0.036300054613031166                                  0.03582316839197367                                     0.09205824567090594                                    0.08714586507915754                                  0.08479558116333137                                   0.08314177921748196                                   0.08195925043772682                                     0.09753893868528915                                    0.09239650670657006                                  0.08989210761019542                                   0.08812631758008266                                   0.08686391455377204                                     0.1                                                   0.1                                                 0.09999999999993085                                  0.09999999981863422                                  0.09999999146315167
1.5                                               2.3560858154945477E-23                                 1.08726284948897E-7                                   1.2784946055360543E-7                               1.2739236335480958E-7                                1.2709765408440274E-7                                1.0698757400552826E-7                                  2.5147624126275032E-23                                 1.220860456770701E-17                                  0.03466054737982777                                   0.03329635102936759                                 0.032524248756544895                                 0.031984605239480435                                 0.03132530327893937                                    8.657855094478527E-18                                  0.03724765040897156                                    0.035737919157150216                                 0.03489766035046411                                   0.034309665792992626                                  0.03362233967005694                                     0.03909121092993946                                    0.03746173014741442                                  0.036573201881953205                                  0.035950932991876634                                  0.035258354255755166                                    0.04220866647457543                                    0.04038608129312836                                  0.039415503853292795                                  0.03873492358066022                                   0.038024737750275005                                    0.09241534218004877                                    0.0877247331004188                                   0.08544151774937411                                   0.08382489481035973                                   0.08264676615891195                                     0.09763213311433075                                    0.09274195712164061                                  0.09032848128969737                                   0.08861682929886742                                   0.08738548820708197                                     0.1                                                   0.1                                                 0.09999999999993156                                  0.09999999982485756                                  0.09999999181513587
2                                                 1.604739595004626E-23                                  9.357433182494031E-7                                  1.1530465992535144E-6                               1.147329884768028E-6                                 1.1435996824673166E-6                                9.166733642015216E-7                                   -2.055339522457246E-22                                 1.2804530448300968E-17                                 0.036943727161201846                                  0.035635550122673006                                0.03478766903985293                                  0.034191222087461476                                 0.033307573697922                                      1.1738849214804139E-17                                 0.039462891365802916                                   0.03801417156911877                                  0.03710351064403436                                   0.03646237192506606                                   0.035559724125146894                                    0.041254429226994876                                   0.039689827218670065                                 0.03873494878467753                                   0.03806231364136963                                   0.03716112824495433                                     0.04427832407976546                                    0.042527330496683814                                 0.041497616475587806                                  0.04077164277592144                                   0.03986478737186123                                     0.0926989803142727                                     0.08819571344561498                                  0.08598087948598783                                   0.08440835566862906                                   0.08324166743115018                                     0.09771842778376034                                    0.0930229692545689                                   0.090691009672789                                     0.08903285503572454                                   0.08783460566095469                                     0.1                                                   0.10000000000000002                                 0.0999999999999412                                   0.09999999983326732                                  0.09999999215782703
2.5                                               -9.298130940206858E-22                                 4.8382029722251175E-6                                 5.927394558745662E-6                                5.883279775635981E-6                                 5.853971091365744E-6                                 4.680387357308512E-6                                   -2.762836655759943E-22                                 1.2845303848106757E-17                                 0.03873197449617621                                   0.03753535888688547                                 0.03664074917764108                                  0.03600901170674204                                  0.03492238571607062                                    1.1297817086789005E-17                                 0.04119431385391077                                    0.03985938567452993                                  0.038906235008188426                                  0.03823272652590965                                   0.03713560345640155                                     0.04294305019244748                                    0.04149396146641333                                  0.040499703803826365                                  0.03979685041240734                                   0.03870738851582366                                     0.04589092619644846                                    0.04425827869475625                                  0.04319461702113449                                   0.042442193443332464                                  0.04135794659680499                                     0.09290564233483183                                    0.08856845575661451                                  0.08641209067238974                                   0.0848777965193411                                    0.0837192081110934                                      0.09777136703310979                                    0.09324333562768201                                  0.0909793497163881                                    0.08936616478888772                                   0.08819524788145898                                     0.1                                                   0.1                                                 0.0999999999999413                                   0.09999999983620847                                  0.09999999236053014
3                                                 4.181460457762513E-21                                  1.481910886187945E-5                                  1.819360658692463E-5                                1.8054497232243142E-5                                1.7935444002036343E-5                                1.4209026826541169E-5                                  7.627817385089522E-22                                  1.4577410654309608E-17                                 0.04016323092361127                                   0.03910503665339187                                 0.03818056276493984                                  0.03752604752877272                                  0.03625296884658748                                    1.1900178854041629E-17                                 0.042577731592076076                                   0.04138161836185248                                  0.04040197063759913                                   0.03970801913328193                                   0.038432382474075294                                    0.044290882288586145                                   0.04298095555403261                                  0.041962633406187534                                  0.041241027451596746                                  0.03997877234386971                                     0.04717616547876085                                    0.04568309889467252                                  0.044599571374867523                                  0.04383131817521935                                   0.042584253362079494                                    0.09306256692612382                                    0.08887043748710909                                  0.08676400325028369                                   0.0852626372587573                                    0.08410921134835093                                     0.09780583767146123                                    0.09342064288634937                                  0.09121376178616214                                   0.08963856263446007                                   0.08849020636229105                                     0.1                                                   0.09999999999999999                                 0.10000000000005814                                  0.09999999983790742                                  0.09999999247784253
3.5                                               -2.047510100013225E-20                                 3.43993158881771E-5                                   3.742590283983857E-5                                4.4422721739636354E-5                                4.008076859911255E-5                                 3.2737653166258623E-5                                  -5.1937556588979084E-21                                1.309767545748682E-17                                  0.04133815929783166                                   0.040428507032406996                                0.03948406899092534                                  0.03881414034324296                                  0.03736828339730234                                    1.1427444608876755E-17                                 0.043712078244044245                                   0.042663616858511534                                 0.041666733950672497                                  0.040959270096903505                                  0.03951825862986702                                     0.04539532674087325                                    0.044232445954307635                                 0.043198840324583175                                  0.04246508407606674                                   0.04104274931843341                                     0.048228416247064844                                   0.04688114972111402                                  0.04578568049373934                                   0.04500761281951652                                   0.04360966081118414                                     0.09319999437758633                                    0.08912397880799526                                  0.0870594821296761                                    0.0855862149291911                                    0.08443545688303909                                     0.09784556756871579                                    0.09357043056031428                                  0.09141086973819262                                   0.08986762439961049                                   0.08873780229172439                                     0.1                                                   0.10000000000000019                                 0.10000000000207333                                  0.09999999990066405                                  0.09999999290013037
4                                                 -2.6837825852626898E-20                                6.691293193239359E-5                                  6.886723897727517E-5                                9.405868820986162E-5                                 6.849181400446055E-5                                 6.326321295966086E-5                                   8.658033918870225E-21                                  1.2884945538732995E-17                                 0.04232757690861454                                   0.041567063801562366                                0.04060860054412741                                  0.03992770419814405                                  0.03832093888675889                                    1.143399363892742E-17                                  0.04466672194301426                                    0.04376558622037693                                  0.04275693205193977                                   0.04204007846605302                                   0.04044506804971584                                     0.04632452762227367                                    0.04530768941069705                                  0.044263913436212665                                  0.04352189049171615                                   0.04195047350421541                                     0.04911346816210459                                    0.04790983007228425                                  0.04680691601701632                                   0.046022497171312696                                  0.04448397119123849                                     0.09333094853384467                                    0.08934361213538644                                  0.08731425142803835                                   0.08586499170772999                                   0.08471494529899191                                     0.0978976296388568                                     0.09370209155943444                                  0.09158173668121761                                   0.09006550404230024                                   0.08895095836130609                                     0.1                                                   0.10000000000000153                                 0.10000000002074438                                  0.10000000046924051                                  0.09999999575672594
4.5                                               3.3273079985165994E-18                                 1.1485034185959177E-4                                 1.1980206505251312E-4                               1.6000087310643084E-4                                1.1761077097877158E-4                                1.0800521228679889E-4                                  8.145926038880461E-19                                  1.447108297567281E-17                                  0.043173390084340686                                  0.04255829143242945                                 0.04158971198236128                                  0.040900839421401824                                 0.03914388215226849                                    1.2706855025451097E-17                                 0.04548254172505481                                    0.0447243785804176                                   0.0437074742476417                                    0.04298396272503094                                   0.041245211773710655                                    0.047118512962472506                                   0.046242924133674056                                 0.045192216485502146                                  0.04444446919773318                                   0.04273388409266883                                     0.04986972240536563                                    0.0488042018190737                                   0.04769659138418066                                   0.04690803434555463                                   0.04523823212138969                                     0.09344676570880014                                    0.08953684009799398                                  0.08753739864353588                                   0.08610891182257767                                   0.08495813936495787                                     0.09794631990745051                                    0.09381940738553539                                  0.09173231583866678                                   0.09023933203277967                                   0.08913753151297607                                     0.1                                                   0.1000000000000061                                  0.10000000010296817                                  0.10000000296595084                                  0.10000000766262843
5                                                 3.37676792970948E-17                                   1.8498592346860077E-4                                 2.2515383744785056E-4                               2.1600473219411377E-4                                2.1731675472403886E-4                                1.7286957034367352E-4                                  8.269086026750134E-18                                  1.2419117196715558E-16                                 0.043910439454903916                                  0.04343596477312196                                 0.042459844364393214                                 0.04176494139993562                                  0.03986740059189824                                    3.918009683580578E-17                                  0.04619275466001638                                    0.045572819582088975                                 0.044550008719086764                                  0.04382161352873741                                   0.04194833072734152                                     0.04780920679965457                                    0.047070204222433076                                 0.04601474784442208                                   0.04526292915314545                                   0.04342208961339303                                     0.05052669380491576                                    0.04959486377286175                                  0.048484473888473906                                  0.04769322663613975                                   0.045900540268906345                                    0.09351776788878814                                    0.08969894014072514                                  0.08772914027344661                                   0.08632035743649921                                   0.08516869312466935                                     0.09795328071668334                                    0.09391271646845878                                  0.0918587421078178                                    0.09038782448585733                                   0.08929780135364174                                     0.1                                                   0.10000000000000009                                 0.10000000000236087                                  0.0999999999557254                                   0.09999999356131967