% Model:              MSA_reference_cd.mph
% Version:            COMSOL 6.3.0.290
% Date:               Apr 7 2026, 10:53
% Table:              Probe Table inner edge - 
% Time (min)             Molar concentration, is (mol/m^3), Point: (1.78, 0.5) Molar concentration, is (mol/m^3), Point: (1.78, 5) Molar concentration, is (mol/m^3), Point: (1.78, 10) Molar concentration, is (mol/m^3), Point: (1.78, 15) Molar concentration, is (mol/m^3), Point: (1.78, 19.5) Molar concentration, is (mol/m^3), Point: (1.78, 24.5) Molar concentration, is (mol/m^3), Point: (0.28, -4.5) Molar concentration, is (mol/m^3), Point: (0.28, 0.5) Molar concentration, is (mol/m^3), Point: (0.28, 5) Molar concentration, is (mol/m^3), Point: (0.28, 10) Molar concentration, is (mol/m^3), Point: (0.28, 15) Molar concentration, is (mol/m^3), Point: (0.28, 19.5) Molar concentration, is (mol/m^3), Point: (0.28, 24.5) Molar concentration, is (mol/m^3), Point: (0.265, 0.5) Molar concentration, is (mol/m^3), Point: (0.265, 5) Molar concentration, is (mol/m^3), Point: (0.265, 10) Molar concentration, is (mol/m^3), Point: (0.265, 15) Molar concentration, is (mol/m^3), Point: (0.265, 19.5) Molar concentration, is (mol/m^3), Point: (0.255, 0.5) Molar concentration, is (mol/m^3), Point: (0.255, 5) Molar concentration, is (mol/m^3), Point: (0.255, 10) Molar concentration, is (mol/m^3), Point: (0.255, 15) Molar concentration, is (mol/m^3), Point: (0.255, 19.5) Molar concentration, is (mol/m^3), Point: (0.245, 0.5) Molar concentration, is (mol/m^3), Point: (0.245, 5) Molar concentration, is (mol/m^3), Point: (0.245, 10) Molar concentration, is (mol/m^3), Point: (0.245, 15) Molar concentration, is (mol/m^3), Point: (0.245, 19.5) Molar concentration, is (mol/m^3), Point: (0.155, 0.5) Molar concentration, is (mol/m^3), Point: (0.155, 5) Molar concentration, is (mol/m^3), Point: (0.155, 10) Molar concentration, is (mol/m^3), Point: (0.155, 15) Molar concentration, is (mol/m^3), Point: (0.155, 19.5) Molar concentration, is (mol/m^3), Point: (0.145, 0.5) Molar concentration, is (mol/m^3), Point: (0.145, 5) Molar concentration, is (mol/m^3), Point: (0.145, 10) Molar concentration, is (mol/m^3), Point: (0.145, 15) Molar concentration, is (mol/m^3), Point: (0.145, 19.5) Molar concentration, is (mol/m^3), Point: (0.01, 0.5) Molar concentration, is (mol/m^3), Point: (0.01, 5) Molar concentration, is (mol/m^3), Point: (0.01, 10) Molar concentration, is (mol/m^3), Point: (0.01, 15) Molar concentration, is (mol/m^3), Point: (0.01, 19.5)
0                        0                                                     0                                                   0                                                    0                                                    0                                                      0                                                      -9.450129990478748E-77                                 4.511681484838487E-25                                 4.31567505100594E-25                                4.315618701469604E-25                                4.31567505100463E-25                                 4.198616707520142E-25                                  -8.66187302273989E-77                                  2.3911802413104936E-12                                 2.389309289680312E-12                                2.3892808480622205E-12                                2.3893092896803823E-12                                2.3911665173916883E-12                                  3.408589459208914E-5                                   3.406302931617028E-5                                 3.406270150769008E-5                                  3.406302931617071E-5                                  3.408573817009672E-5                                    0.09999832127927709                                    0.09999292184389054                                  0.09999292088327641                                   0.09999292184389054                                   0.09999832168501466                                     0.10000000000000002                                    0.10000000000000002                                  0.10000000000000002                                   0.10000000000000002                                   0.10000000000000003                                     0.1                                                    0.10000000000000002                                  0.1                                                   0.10000000000000002                                   0.10000000000000003                                     0.10000000000000003                                   0.10000000000000002                                 0.10000000000000002                                  0.10000000000000002                                  0.1
0.5                      2.5127787955377527E-15                                2.5555141892796036E-15                              2.5554651634895706E-15                               2.555440614865392E-15                                2.512514869339302E-15                                  -2.2908826687042622E-63                                2.932127389087357E-55                                  0.027701602730518637                                  0.027032953193545612                                0.0267432366487234                                   0.02655463850011082                                  0.026420156764711728                                   -4.3016786877204924E-55                                0.030581798849236647                                   0.029776569499947985                                 0.029425099155723257                                  0.029194993678241236                                  0.02903193555583179                                     0.032620548895320074                                   0.031712147324606116                                 0.031313651840848375                                  0.031051780734262097                                  0.030866788372236883                                    0.036083287082079786                                   0.03498990801736957                                  0.03450649691323387                                   0.03418701559030545                                   0.033962096624184375                                    0.09153764302674622                                    0.0867711529369416                                   0.08452536927263038                                   0.08297908633993492                                   0.08187390849989319                                     0.09729186616618302                                    0.09215758257002242                                  0.08970367426233604                                   0.08800758848102558                                   0.08679247521302633                                     0.1                                                   0.10000000000000006                                 0.09999999999998196                                  0.09999999989847097                                  0.09999999386208168
1                        1.3131993426846448E-9                                 1.3894746987361768E-9                               1.3877562128153512E-9                                1.3866957576611806E-9                                1.3057037930515053E-9                                  5.603544319555165E-33                                  1.3828385839084815E-31                                 0.03158183365066878                                   0.03036628276587423                                 0.029751505692021476                                 0.029327889390606127                                 0.028927784972201023                                   1.3732806049538167E-31                                 0.03425920686031563                                    0.03289109832142805                                  0.032204157185770715                                  0.03172983971969373                                   0.03129727493324114                                     0.036155685423010765                                   0.034677875839572644                                 0.033939030694826594                                  0.03342818513434041                                   0.032972574356922114                                    0.03938112702385531                                    0.037714710099512494                                 0.03688650638813988                                   0.03631268134454839                                   0.03581761215491572                                     0.09187693446555638                                    0.08713320768033739                                  0.08481175454540532                                   0.08317787232774658                                   0.08198273455948292                                     0.09738804297251126                                    0.09238291631534115                                  0.08990936131921068                                   0.08816491949211049                                   0.08689447675351816                                     0.1                                                   0.10000000000000005                                 0.09999999999998255                                  0.09999999990194768                                  0.0999999940676424
1.5                      9.814794421806047E-8                                  1.0578835104736306E-7                               1.0549096264722757E-7                                1.0530130914633628E-7                                9.690378533474716E-8                                   6.693255897429697E-29                                  1.4067179833059035E-27                                 0.034622360691383344                                  0.03329088232742781                                 0.032528499546338394                                 0.0319955775973385                                   0.03135803835174735                                    1.3947488158978728E-27                                 0.03720937775038795                                    0.035732187334759594                                 0.03490247832168499                                   0.034321795312214985                                  0.03365912187791518                                     0.039036737457684885                                   0.03745581219357067                                  0.036578418483829256                                  0.03596387724659259                                   0.03528415323440104                                     0.04213757780675063                                    0.04037984929140956                                  0.039421391950501435                                  0.03874924627896606                                   0.038041312279486796                                    0.09225052620679133                                    0.0877136606644025                                   0.08545787737557752                                   0.08386070232256827                                   0.08267266826835433                                     0.09749768740915565                                    0.09273057706065377                                  0.09034598457029522                                   0.0886548658460831                                    0.08741604442282022                                     0.1                                                   0.10000000000000003                                 0.09999999999998327                                  0.09999999990631551                                  0.0999999943392652
2                        9.984430357236255E-7                                  1.0942012289138872E-6                               1.0891554359730256E-6                                1.0858703164370978E-6                                9.78073383006126E-7                                    4.936973229077686E-26                                  8.645691167622994E-25                                  0.03691002087520241                                   0.035628894425706686                                0.0347916807470127                                   0.034202680567986296                                 0.03335069527151506                                    8.55419328706961E-25                                   0.039428785851316255                                   0.03800725324576515                                  0.037108029122395934                                  0.03647488459186318                                   0.03560635858901419                                     0.04120411303645924                                    0.03968272640460428                                  0.038739824717579564                                  0.03807556792055392                                   0.037196494009871635                                    0.04421132107380782                                    0.042519925372690795                                 0.041503095990091714                                  0.04078615083858822                                   0.03989044932591265                                     0.09253212177999941                                    0.08818311014882907                                  0.08599554349113142                                   0.08444222991697094                                   0.08326704733343084                                     0.09758036358863349                                    0.09300988620669556                                  0.09070661155264279                                   0.08906869584330632                                   0.0878635631432597                                      0.1                                                   0.10000000000000005                                 0.09999999999998378                                  0.09999999990968261                                  0.09999999455075147
2.5                      5.40034556555079E-6                                   6.013632966137396E-6                                5.967810688173058E-6                                 5.937283694866651E-6                                 5.223214361016937E-6                                   2.5352935222064993E-20                                 1.564836147303042E-19                                  0.03870522291233863                                   0.03753139622096975                                 0.03664771961245508                                  0.03602364205256245                                  0.0349741671060927                                     1.513364204474052E-19                                  0.041166973077188494                                   0.039855108640162805                                 0.0389136108698101                                    0.0382482754130139                                    0.03719045051953685                                     0.04289955768245762                                    0.04148946124031695                                  0.040507361359117894                                  0.039813041126572045                                  0.03875074288079746                                     0.0458308035263426                                     0.04425340032421445                                  0.043202744803101906                                  0.04245946396815553                                   0.041391211330684026                                    0.09274944212986062                                    0.08855771431887129                                  0.0864275022651626                                    0.08491180790801972                                   0.08374540309834293                                     0.09764416447074376                                    0.09323219681600085                                  0.09099558968211756                                   0.08940193368932847                                   0.0882243552568667                                      0.10000000000000002                                   0.10000000000000006                                 0.09999999999998424                                  0.0999999999123117                                   0.099999994716648
3                        1.6438800351110057E-5                                 1.8499932451885003E-5                               1.8320994135994013E-5                                1.820058006710882E-5                                 1.5761767337240014E-5                                  5.607748332479624E-19                                  3.2158291817792194E-18                                 0.04014186932433263                                   0.03910358727564432                                 0.0381902251211963                                   0.037543513995895776                                 0.03631086252733658                                    3.102381983712199E-18                                  0.04255575934333258                                    0.04137982239361485                                  0.0404119639629892                                    0.03972630213306471                                   0.03849301770421985                                     0.04425292280337653                                    0.0429789114048888                                   0.041972852360138334                                  0.04125987637174438                                   0.040027773486313575                                    0.047121824262687295                                   0.04568063285752725                                  0.04461016187913375                                   0.04385111370433864                                   0.04262291007832503                                     0.09292120780661065                                    0.08886267524475389                                  0.0867809266584441                                    0.08529742439536638                                   0.08413650081012657                                     0.09769464997816488                                    0.09341281361918544                                  0.0912315756546391                                    0.08967503967675863                                   0.0885200477101241                                      0.1                                                   0.10000000000000005                                 0.0999999999999846                                   0.09999999991441347                                  0.09999999484981026
3.5                      3.7663993964484885E-5                                 4.2787134425923025E-5                               4.2298737058266776E-5                                4.196754527212219E-5                                 3.584811257431395E-5                                   6.395236628667224E-18                                  3.420144729126674E-17                                  0.04132093501771177                                   0.040429395964112075                                0.039496192489921346                                 0.03883417106304374                                  0.0374307788865723                                     3.2913903983365715E-17                                 0.043694189695910685                                   0.042664127792542854                                 0.041679126281936915                                  0.040980034506281016                                  0.03958325339261695                                     0.04536155311119805                                    0.04423268175978738                                  0.04321140969134579                                   0.042486351223581825                                  0.04109601966199114                                     0.04817836731039312                                    0.04688091123136692                                  0.04579853260246953                                   0.04502971304031503                                   0.04365241140723523                                     0.09306100095507107                                    0.08911708706347587                                  0.08707684588342078                                   0.08562114042979735                                   0.0844632474182211                                      0.09773582680666129                                    0.09356325941434168                                  0.09142889072541954                                   0.08990398148643457                                   0.08876773850470987                                     0.1                                                   0.10000000000000005                                 0.09999999999998486                                  0.09999999991614146                                  0.09999999495964912
4                        7.233537304522904E-5                                  8.27571492554031E-5                                 8.17854048153078E-5                                  8.109489189784783E-5                                 6.840550387776692E-5                                   4.9989435339592747E-17                                 2.5004547335611546E-16                                 0.04231198976522618                                   0.04156925414909643                                 0.04062218501737502                                  0.03994931849698558                                  0.03838630247369312                                    2.4004176607983627E-16                                 0.044650244910247154                                   0.04376734906565398                                  0.042770722311767075                                  0.04206235090240068                                   0.04051274072178191                                     0.04629210845934313                                    0.04530913489091708                                  0.0442778308640666                                    0.04354460767696097                                   0.042006362249150574                                    0.04906457443643668                                    0.04791071734939559                                  0.04682102302705878                                   0.04604594178910846                                   0.04452921374202354                                     0.09317783600304985                                    0.08933405850842849                                  0.0873298796126664                                    0.08589845107327429                                   0.0847418119020612                                      0.09777033318905681                                    0.09369141063614622                                  0.09159743849893484                                   0.09009990465456481                                   0.08897944911923764                                     0.10000000000000003                                   0.10000000000000006                                 0.0999999999999851                                   0.09999999991759803                                  0.09999999505247281
4.5                      1.2260142390753834E-4                                 1.412299568513951E-4                                1.391798004259432E-4                                 1.3788827792190046E-4                                1.1531718426762711E-4                                  2.0862852806456016E-16                                 1.0230527965424812E-15                                 0.04315498190885538                                   0.042559133494317385                                0.041602332482188004                                 0.04092172305883253                                  0.03920934619909893                                    9.81329710821402E-16                                   0.045462853774945494                                   0.04472469802840211                                  0.043720220374061106                                  0.04300542303533026                                   0.04131282369444942                                     0.04708269950215289                                    0.04624285242292921                                  0.045205029383840516                                  0.04446631391890994                                   0.04278966870989667                                     0.04981703227177963                                    0.048803434785187214                                 0.04770948438879494                                   0.046930498798829386                                  0.04528327170145224                                     0.09327676150364497                                    0.08952116663697199                                  0.08754856535428629                                   0.08613847904366198                                   0.08498174735130017                                     0.09779963777116656                                    0.09380180483215814                                  0.09174298009706523                                   0.09026934233108906                                   0.08916226772742002                                     0.1                                                   0.10000000000000006                                 0.0999999999999853                                   0.09999999991884091                                  0.09999999513185977
5                        1.9044473707233983E-4                                 2.2112956526512985E-4                               2.177776355719136E-4                                 2.1546650067946809E-4                                1.7827615805748968E-4                                  7.827140243081058E-16                                  3.746412142738503E-15                                  0.04388846444284416                                   0.04343462072587988                                 0.04247065292311432                                  0.04178423925245298                                  0.039931779601518474                                   3.5900187273574865E-15                                 0.046169526127307896                                   0.04557095388743883                                  0.044560926692756735                                  0.0438414587405036                                    0.04201476102555754                                     0.04777001465804266                                    0.0470679596365416                                   0.04602572944979933                                   0.0452831449961708                                    0.043476698098141524                                    0.050470918262053285                                   0.04959196432776277                                  0.048495544133804136                                  0.04771405022521075                                   0.04594440140773011                                     0.09336258786367077                                    0.08968580045946689                                  0.08774128242366859                                   0.08635022313196264                                   0.08519248152738344                                     0.0978251360747008                                     0.09389885818859885                                  0.09187115739895471                                   0.09041872314835701                                   0.0893231860931255                                      0.10000000000000002                                   0.10000000000000006                                 0.09999999999998546                                  0.0999999999199255                                   0.09999999520125444